ITEM: TIMESTEP
22000000
ITEM: NUMBER OF ATOMS
17280
ITEM: BOX BOUNDS pp pp pp
0.0000000000000000e+00 2.0000000000000000e+01
0.0000000000000000e+00 2.0000000000000000e+01
0.0000000000000000e+00 1.2000000000000000e+02
ITEM: ATOMS id mol type xu yu zu
779 39 1 -71.7544 5.74257 1.46527
7700 385 2 29.8319 6.98631 0.217353
7699 385 2 29.5383 6.97221 1.07067
6449 323 2 -59.8668 41.1129 3.21201
1867 94 1 84.1023 60.3846 2.92478
1866 94 1 84.6509 61.1153 3.18759
6450 323 2 -60.7812 41.1008 3.23732
7139 357 2 4.82537 23.6961 3.08125
7140 357 2 5.44292 23.9517 2.39497
7683 385 2 29.0456 4.73154 2.73597
7682 385 2 29.849 4.32626 2.65458
7681 385 2 30.4501 3.63788 2.81798
133 7 1 -95.4685 46.5179 2.20467
134 7 1 -94.7453 46.087 2.61551
7687 385 2 26.6627 5.99181 3.25496
780 39 1 -72.1121 5.29007 2.15535
7686 385 2 27.5763 5.86665 3.26179
7693 385 2 27.329 6.30441 2.43887
7694 385 2 28.167 6.56737 2.71881
7684 385 2 28.9148 5.59983 2.4828
7685 385 2 28.5136 5.84605 3.28948
778 39 1 -71.5925 6.60172 1.70001
129 7 1 -97.7274 48.1758 2.87002
128 7 1 -97.5461 47.3984 3.30355
135 7 1 -95.0788 46.8326 3.13816
131 7 1 -96.0802 48.0361 2.57169
132 7 1 -96.0394 47.252 2.08717
7691 385 2 26.2277 7.3809 2.93581
7692 385 2 26.5788 6.85618 2.26319
777 39 1 -72.3395 7.13154 1.91318
776 39 1 -72.7977 7.83154 2.19491
775 39 1 -71.995 7.65607 2.69325
774 39 1 -72.6411 7.12306 3.07987
7695 385 2 29.0647 6.88613 2.77756
7696 385 2 29.2069 7.76443 2.98932
7697 385 2 29.9744 7.62 2.42671
7698 385 2 29.3203 7.31168 1.89253
130 7 1 -96.8798 48.4495 2.60908
14687 735 3 22.8476 69.3221 1.84964
14686 735 3 23.1 69.7819 2.62216
14685 735 3 23.8415 69.9297 3.07467
7611 381 2 -75.1305 28.8188 3.29998
5100 255 2 -32.4916 8.55929 3.23868
243 13 1 47.3251 9.81332 3.03804
5585 280 2 9.59003 49.2402 3.15034
245 13 1 48.4185 9.50628 3.05514
5589 280 2 10.5888 49.3786 3.01119
1440 72 1 -26.5228 -51.5821 3.02013
14695 735 3 18.9532 69.6014 3.27723
14699 735 3 20.0655 70.7817 2.4047
14700 735 3 20.5077 70.1598 1.92138
14698 735 3 20.2496 70.0658 2.92075
12824 642 1 0.903281 11.636 3.12981
121 7 1 -97.1488 51.4433 3.2353
12821 642 1 1.84291 11.1294 2.67578
14689 735 3 22.1215 70.1218 2.67016
14688 735 3 22.5786 70.1675 1.89889
14684 735 3 24.2962 70.7163 3.26645
14683 735 3 23.9136 70.8808 2.44039
14682 735 3 24.7216 71.3409 2.54284
241 13 1 46.2958 10.8777 2.02202
14681 735 3 25.2996 70.6797 2.75841
242 13 1 46.739 10.1746 2.40285
7038 352 2 -32.9511 50.8722 3.1479
246 13 1 48.1887 10.3767 3.23083
5586 280 2 9.31857 50.1212 3.14308
5587 280 2 10.1402 50.5408 3.20656
5588 280 2 10.5344 50.1131 2.44999
7021 352 2 -28.6138 50.8388 3.20442
16808 841 3 -5.67122 -49.0378 2.76588
5181 260 2 -43.7103 30.0925 2.77181
2344 118 1 57.2317 30.5054 2.92764
2345 118 1 57.5154 30.8837 2.10865
2347 118 1 56.8838 31.5996 3.14464
16320 816 3 17.9699 -68.7824 3.09516
14697 735 3 19.488 70.0313 2.46607
14696 735 3 18.6035 70.2901 2.68068
12823 642 1 1.51412 12.3044 3.01343
12825 642 1 0.158177 12.0156 2.85007
5302 266 2 -35.3113 -27.6765 3.11579
10377 519 1 26.3969 -47.3178 2.54784
7040 352 2 -32.1972 51.8517 3.2349
7039 352 2 -32.998 51.7548 2.80715
252 13 1 51.5189 12.0222 3.33095
2360 118 1 53.1116 32.11 2.61005
16810 841 3 -5.776 -47.7805 2.30191
16811 841 3 -6.30015 -47.1293 2.68466
16809 841 3 -5.94738 -48.2235 3.11026
2346 118 1 57.2776 31.7415 2.35229
16319 816 3 17.8274 -67.8664 3.09906
10379 519 1 25.7314 -46.499 3.26086
10378 519 1 25.7614 -46.6658 2.33292
10376 519 1 27.078 -46.6449 2.59418
10375 519 1 27.7995 -46.0488 2.65693
2585 130 1 -10.524 -26.6313 2.91781
2586 130 1 -10.9318 -25.8214 3.16128
2587 130 1 -11.4309 -25.0546 3.30747
16812 841 3 -5.91378 -46.488 3.25959
3570 179 1 0.801279 -44.4643 3.01403
3569 179 1 1.70178 -44.4033 3.15855
2594 130 1 -14.0476 -24.4683 2.97121
16818 841 3 -3.96733 -43.872 2.61267
16817 841 3 -3.92711 -44.5999 3.19118
8461 424 2 -22.5059 -4.00996 3.09168
2596 130 1 -13.1053 -23.0808 3.08952
7850 393 2 29.1018 37.4681 3.1655
2178 109 1 31.0982 -21.6919 2.40388
2177 109 1 30.7744 -22.426 2.86542
5658 283 2 -28.0857 17.4048 3.09239
16820 841 3 -4.37531 -42.3551 3.19726
16819 841 3 -3.93192 -43.1411 3.20793
3580 179 1 0.854316 -40.6097 3.19113
2179 109 1 30.4931 -20.9621 2.59433
2180 109 1 31.156 -20.686 1.99359
5656 283 2 -28.6358 19.0474 3.21172
518 26 1 -27.4759 -20.6261 3.16868
519 26 1 -27.8027 -21.2314 2.58417
520 26 1 -27.1116 -21.5444 3.07364
2775 139 1 -4.24099 -21.2354 3.18585
6447 323 2 -60.9913 39.9086 3.20508
4982 250 2 1.57499 60.1032 4.1375
4983 250 2 0.682121 60.298 3.91362
4984 250 2 0.620112 60.1339 4.79811
1870 94 1 82.7505 60.7078 4.63019
7134 357 2 3.88527 21.2421 4.41277
1868 94 1 83.6734 60.2539 3.71105
1865 94 1 84.8765 61.0334 4.08677
1862 94 1 85.829 61.3795 3.77582
1863 94 1 85.8372 60.729 4.43188
1864 94 1 85.2006 60.1638 4.12494
4281 215 1 -13.0867 21.2917 4.46675
4283 215 1 -11.7645 20.3011 4.77064
4282 215 1 -12.3717 20.7639 4.24852
13679 684 3 -11.826 -58.463 4.60247
2171 109 1 29.5779 -18.7875 3.43655
2172 109 1 30.0861 -19.5192 3.64189
8580 429 2 50.4679 -38.4861 3.84796
5647 283 2 -28.7639 20.3739 4.55098
5646 283 2 -29.6776 20.6197 4.70774
5653 283 2 -27.3988 20.5047 4.68651
5654 283 2 -27.9579 20.5692 3.96513
16620 831 3 -5.53857 40.0518 4.85535
6442 323 2 -63.3429 40.3187 4.47504
11995 600 1 -24.3112 41.125 4.65552
11996 600 1 -24.1426 41.4347 3.79609
12000 600 1 -21.9928 40.9533 3.62669
11997 600 1 -23.2482 41.2305 3.76331
11999 600 1 -22.0123 41.6051 4.30771
6444 323 2 -62.6751 40.208 3.83938
6443 323 2 -62.5425 40.7564 4.56109
1978 99 1 -0.196613 161.148 4.43697
6448 323 2 -60.1363 40.2355 3.42119
2762 139 1 -1.31233 -19.9163 4.89989
2761 139 1 -1.16064 -19.3339 4.21558
1979 99 1 0.29 161.938 4.46054
1980 99 1 0.861042 162.629 4.48504
7221 362 2 22.3051 41.9868 4.64797
7135 357 2 4.45674 21.8595 4.87033
7136 357 2 4.26104 22.399 4.07879
7138 357 2 4.91827 22.8905 3.45715
3108 156 1 -56.1065 43.0894 4.83116
1861 94 1 86.1725 62.1895 3.60226
7137 357 2 5.14612 22.1781 4.02171
9729 487 1 5.59017 63.3132 4.96893
13675 684 3 -13.795 -58.2395 4.97354
13676 684 3 -13.4843 -57.3694 4.99406
13677 684 3 -12.9094 -57.6046 4.29323
13678 684 3 -12.2921 -58.1637 3.88723
9733 487 1 7.63101 63.2031 4.78747
2170 109 1 29.1501 -18.1226 3.97001
2169 109 1 29.7321 -18.0591 4.62679
8578 429 2 49.473 -37.0864 4.16742
8577 429 2 48.5784 -37.0701 4.53972
8579 429 2 50.2118 -37.5833 3.82652
12504 626 1 10.9615 42.3409 4.76872
12505 626 1 11.7564 42.77 4.39219
12507 626 1 13.0006 42.9766 4.65556
12506 626 1 12.5193 42.4361 4.06221
6019 301 2 -25.9206 -18.0529 3.44309
6017 301 2 -26.2047 -18.1383 4.78821
6020 301 2 -25.039 -17.6472 3.41397
6018 301 2 -26.0596 -17.5143 4.17422
4241 213 1 34.8238 -36.9823 4.60564
11992 600 1 -23.7209 42.1852 4.45711
11994 600 1 -24.8869 41.8671 4.81281
11998 600 1 -22.8516 41.8892 4.28191
6453 323 2 -60.7343 43.1434 4.74894
6452 323 2 -60.4017 42.5887 4.00682
6451 323 2 -60.905 41.8946 3.65209
6459 323 2 -59.1189 43.8524 4.2368
6460 323 2 -58.4573 44.4783 4.0449
20 1 1 -17.7006 63.5247 4.07947
19 1 1 -17.2451 64.3529 3.97765
18 1 1 -16.7936 64.6539 4.6977
3109 156 1 -55.5354 43.7333 4.42392
9730 487 1 6.06604 63.6147 4.23106
9731 487 1 6.58886 64.0718 3.6291
3110 156 1 -54.8223 43.9769 3.94529
3111 156 1 -54.8524 44.9125 4.03232
9732 487 1 7.18021 63.8387 4.27968
8572 429 2 48.2142 -35.6582 4.72114
12554 628 1 29.0683 -36.1043 3.41048
12555 628 1 29.6898 -35.9846 4.141
12553 628 1 28.3768 -35.5224 3.55053
12552 628 1 29.1224 -35.0695 3.80624
12551 628 1 29.8765 -35.147 4.34078
12556 628 1 30.6094 -35.8557 4.41643
12557 628 1 30.9368 -35.1138 3.95417
6009 301 2 -28.0581 -16.1352 4.73308
6008 301 2 -27.3987 -15.9549 4.09894
6007 301 2 -27.6446 -15.151 3.73748
4243 213 1 34.2577 -36.2061 3.55059
4244 213 1 34.5761 -35.5275 4.07119
4245 213 1 34.844 -35.5543 4.96988
4242 213 1 35.0726 -36.3955 3.96054
8281 415 2 16.1151 4.29842 4.26175
11981 600 1 -22.5249 43.6167 4.36968
7601 381 2 -78.3521 25.3568 4.21591
7604 381 2 -77.3298 26.5334 3.75217
7602 381 2 -77.6666 25.8347 4.69273
7605 381 2 -76.4305 26.6655 3.61249
3112 156 1 -55.5685 45.3354 4.45057
136 7 1 -95.2981 46.1511 3.73792
3113 156 1 -56.259 45.829 4.91253
7688 385 2 26.0485 5.84332 3.95458
7689 385 2 25.8731 6.65436 3.59414
8566 429 2 45.2942 -34.142 4.63495
770 39 1 -73.2632 5.41871 4.64237
772 39 1 -72.4246 6.00229 4.40897
771 39 1 -73.2338 6.37201 4.58227
767 39 1 -71.4871 5.56756 4.68832
766 39 1 -71.1987 6.43622 4.77587
5420 271 2 9.49045 -13.3625 3.97298
12558 628 1 31.6243 -34.7929 4.46337
12559 628 1 31.0086 -34.1392 4.43879
12560 628 1 31.4074 -33.3475 4.14607
12550 628 1 30.0381 -34.2497 4.59095
6005 301 2 -26.6855 -14.9342 4.78128
6006 301 2 -26.723 -14.9802 3.87067
6847 343 2 16.0362 -73.3947 4.22877
6848 343 2 15.1607 -73.5038 4.33696
6846 343 2 16.5726 -74.0066 4.69106
6844 343 2 17.9119 -74.2179 4.70078
6841 343 2 18.5095 -73.4776 4.07742
6843 343 2 18.8205 -74.2589 4.49705
6842 343 2 19.3857 -73.5574 4.33484
7603 381 2 -77.3127 26.6975 4.63739
7608 381 2 -77.0272 27.6936 4.85905
127 7 1 -97.5611 48.1064 3.87676
7606 381 2 -76.5502 27.4819 4.00576
7607 381 2 -76.1543 27.2835 4.79128
137 7 1 -95.4098 46.9389 4.1877
7690 385 2 26.4704 7.32293 3.84612
7612 381 2 -74.3968 28.2931 3.46266
138 7 1 -94.6285 47.2024 4.57479
5099 255 2 -32.3541 8.16497 4.11982
773 39 1 -72.5646 6.74556 3.92326
5097 255 2 -31.7028 7.45455 4.19027
5094 255 2 -32.9051 7.58006 4.74671
5095 255 2 -32.375 6.83199 4.97366
5098 255 2 -31.4871 8.26841 3.72987
5419 271 2 9.53828 -12.6459 4.63292
9420 471 1 -49.6282 8.32717 3.41474
9419 471 1 -48.8647 8.17688 3.82373
5527 277 2 -49.0564 -32.3163 4.83004
5538 277 2 -48.0327 -32.0427 4.27893
1438 72 1 -26.371 -51.8834 4.7411
1439 72 1 -26.4872 -51.9149 3.83987
10308 516 1 34.7388 -52.2577 4.48694
10307 516 1 34.2657 -52.9931 4.74555
10309 516 1 35.6327 -52.0931 4.32099
6849 343 2 15.4032 -72.9051 4.94303
10310 516 1 36.3059 -52.3667 4.86827
10311 516 1 37.1245 -52.4602 4.37211
1421 72 1 -20.6536 -51.7441 4.58958
10043 503 1 -18.9903 9.95041 4.29019
10044 503 1 -18.3412 9.26215 3.98705
125 7 1 -97.1408 49.7561 3.58694
10045 503 1 -17.7526 9.54091 4.60234
126 7 1 -97.4384 48.9044 3.36662
140 7 1 -95.4069 48.636 4.69067
7609 381 2 -76.5906 28.3675 4.35388
7610 381 2 -75.8559 28.4179 3.72829
7613 381 2 -74.0042 29.052 3.86762
7614 381 2 -73.3715 28.422 3.67667
7617 381 2 -74.2562 29.3698 4.74529
7615 381 2 -73.3196 28.61 4.59551
244 13 1 47.832 9.5514 3.72304
8743 438 1 7.0901 -30.0762 4.61861
8742 438 1 7.63615 -30.8928 4.61305
9415 471 1 -51.3953 8.95842 4.80718
9416 471 1 -50.7998 8.3676 4.49244
5584 280 2 9.2055 49.3642 3.93748
9417 471 1 -49.9026 8.69198 4.36864
9418 471 1 -48.9711 8.88587 4.35126
5590 280 2 11.0741 49.8546 3.60445
5539 277 2 -47.4123 -31.4077 4.3987
11062 554 1 -27.5705 9.72064 4.57808
5540 277 2 -46.6864 -30.8741 4.14516
5185 260 2 -45.1911 28.8132 4.61977
5184 260 2 -44.7476 29.5998 4.34991
2342 118 1 56.7346 29.3662 3.74266
2343 118 1 57.5416 29.7309 3.37356
2341 118 1 56.7094 28.7333 4.41455
1423 72 1 -21.6203 -51.4501 4.62973
1422 72 1 -20.9369 -50.9317 4.26726
14692 735 3 20.7304 70.9878 3.97261
14691 735 3 21.1602 70.4298 3.38374
10041 503 1 -19.8627 10.1072 4.9998
12822 642 1 1.93509 11.6225 3.44075
124 7 1 -96.7585 50.5643 3.62761
14690 735 3 22.0761 70.4247 3.51412
6273 314 2 -16.9543 -28.8742 4.82752
10177 509 1 21.8258 50.8199 4.76232
123 7 1 -96.1528 51.1333 4.02829
8656 433 1 -36.3475 -9.86098 4.37891
8657 433 1 -35.4693 -9.91574 4.04116
8659 433 1 -34.2794 -8.52721 3.63591
7618 381 2 -74.1903 30.2785 4.6389
7619 381 2 -73.9703 31.1588 4.63649
7037 352 2 -33.4968 50.511 3.83123
8658 433 1 -34.8576 -9.19864 3.92156
7620 381 2 -74.8099 31.0951 4.99997
5581 280 2 7.8871 50.5607 4.92992
7036 352 2 -32.7618 50.9164 4.1674
7035 352 2 -32.753 51.4087 4.94153
5583 280 2 9.34407 50.1817 4.30612
247 13 1 48.8002 10.9285 3.59447
248 13 1 49.5975 11.068 3.95257
5582 280 2 8.4546 50.0784 4.37317
5594 280 2 9.21583 50.921 4.96987
5591 280 2 11.4104 50.1846 4.35733
5592 280 2 10.4684 50.4225 4.29679
251 13 1 50.9212 11.636 3.91312
5593 280 2 10.0957 51.0116 4.93707
7025 352 2 -28.5125 51.2551 4.76377
7022 352 2 -27.8405 51.1513 3.58612
7023 352 2 -27.5261 51.0918 4.4405
2358 118 1 53.2623 31.2307 3.56109
2357 118 1 53.8467 31.2271 4.26843
16807 841 3 -5.79807 -49.6287 3.48929
16806 841 3 -5.22293 -49.3908 4.19231
16805 841 3 -5.12716 -48.4663 4.34081
5182 260 2 -44.014 30.2831 3.64467
5183 260 2 -43.985 30.0825 4.50189
2348 118 1 56.164 31.455 3.74555
2349 118 1 56.5272 31.3602 4.5738
8581 430 2 37.49 -9.97817 4.63957
8582 430 2 37.6094 -9.32257 4.05688
10171 509 1 17.9425 51.6094 4.28866
14693 735 3 19.9232 70.9767 3.59024
14694 735 3 19.2149 70.4349 3.48232
8583 430 2 38.4219 -9.76215 4.14508
10172 509 1 18.8902 51.4325 4.13719
10174 509 1 19.8657 50.9695 4.652
6279 314 2 -18.83 -27.0333 4.22308
6278 314 2 -19.4125 -27.7226 3.98382
6277 314 2 -18.6613 -28.0902 4.34559
3300 165 1 -19.4357 -48.0316 4.96015
122 7 1 -96.6748 51.9146 3.87046
6276 314 2 -17.8617 -27.6997 4.2126
6275 314 2 -17.3535 -27.357 4.89467
5301 266 2 -36.0962 -27.3165 3.36041
5303 266 2 -35.1026 -27.9089 3.9642
8651 433 1 -35.4402 -7.23338 4.92638
5305 266 2 -34.3063 -27.6954 4.66816
5304 266 2 -34.3572 -27.3806 3.82512
8660 433 1 -33.4113 -8.24808 3.85174
10370 519 1 27.4977 -47.4631 4.13679
10369 519 1 26.7414 -47.6818 4.62846
249 13 1 49.6092 11.8192 4.45807
5599 280 2 9.29044 52.9314 3.85
5597 280 2 8.84753 52.5345 4.705
5598 280 2 8.51835 52.5275 3.79766
250 13 1 50.474 11.9908 4.65455
4395 220 2 51.3518 -26.7789 3.80923
4394 220 2 50.5596 -26.9538 4.22951
2359 118 1 52.8504 32.1002 3.48027
253 13 1 51.7155 12.229 4.1794
258 13 1 53.1899 13.0058 3.83043
256 13 1 52.6618 12.3591 4.39505
6575 329 2 -26.748 53.109 4.91492
257 13 1 53.485 12.2265 4.16087
16803 841 3 -4.27331 -46.9437 4.81164
16804 841 3 -4.89927 -47.5978 4.60523
2350 118 1 56.204 32.2365 4.3749
2351 118 1 55.7482 31.6688 4.94294
16315 816 3 17.8744 -67.0311 4.3092
16314 816 3 17.3069 -67.5883 3.79599
16313 816 3 17.1861 -67.6716 4.74703
16318 816 3 18.4469 -67.633 3.81546
16317 816 3 19.1951 -67.09 3.80321
12826 642 1 -0.443337 11.8532 3.48924
12827 642 1 -0.435322 12.1379 4.38614
16316 816 3 18.3455 -66.7138 3.57643
12828 642 1 -1.18996 12.4259 4.84921
4586 230 2 60.3068 74.925 4.2904
3568 179 1 2.18097 -45.131 3.35907
3567 179 1 2.76457 -45.4155 4.01784
6280 314 2 -18.3114 -26.2854 4.16555
5311 266 2 -37.2712 -26.2597 4.74537
8650 433 1 -35.5249 -6.58068 4.29877
4679 234 2 -15.0933 -5.81864 4.97788
8649 433 1 -34.6631 -6.63782 4.54207
10380 519 1 25.6119 -45.7894 3.85312
4678 234 2 -14.44 -5.21632 4.99097
2592 130 1 -13.6912 -25.2127 4.35685
8648 433 1 -33.8218 -6.31001 4.60949
10371 519 1 27.3965 -46.5272 4.11335
10372 519 1 28.2785 -46.5415 4.4146
7860 393 2 26.718 33.8805 3.34759
7859 393 2 26.9308 34.7773 3.43409
10374 519 1 27.9169 -45.838 3.57797
7858 393 2 27.204 34.4676 4.28133
7857 393 2 27.7025 34.8809 4.93489
5600 280 2 9.32691 53.7362 4.30355
10373 519 1 28.4965 -45.6659 4.29592
4396 220 2 51.1976 -25.9028 4.04626
2584 130 1 -9.89532 -26.2172 3.43162
2583 130 1 -9.88997 -25.5233 4.02617
4398 220 2 51.5284 -25.1377 4.68763
4397 220 2 51.2079 -25.0105 3.82531
2582 130 1 -9.8855 -25.8613 4.90459
4393 220 2 50.9603 -26.5549 4.97169
259 13 1 52.5314 13.5393 4.19709
260 13 1 52.2699 14.1136 3.50548
4399 220 2 52.3733 -25.0678 4.31322
6577 329 2 -26.8676 54.1006 4.82312
6576 329 2 -26.0724 53.6672 4.63774
16813 841 3 -5.91649 -45.5501 3.37275
16814 841 3 -5.1556 -45.85 3.81089
505 26 1 -25.6535 -25.1888 4.7554
16816 841 3 -3.83495 -45.2595 3.80522
16815 841 3 -4.45273 -45.6878 4.40757
2022 102 1 17.4373 -5.59798 3.82758
2021 102 1 17.1027 -6.48877 3.85557
2023 102 1 17.9704 -5.43389 4.58431
8849 443 1 -22.5844 -26.4919 4.97036
4587 230 2 59.5447 74.4419 4.17618
6721 337 2 -21.3771 -6.18348 4.89405
3573 179 1 0.178273 -43.4581 3.69937
3571 179 1 0.0178583 -44.4872 3.48147
4585 230 2 61.0505 75.5282 4.20873
4584 230 2 61.4168 76.3556 3.99425
3566 179 1 2.52325 -44.9082 4.77684
577 29 1 22.8954 96.3127 3.92906
8244 413 2 -17.8947 36.1285 4.75209
3562 179 1 4.01615 -44.8794 4.94471
576 29 1 23.5818 96.3875 4.51662
4675 234 2 -15.2247 -3.53106 4.29144
2595 130 1 -13.5916 -23.794 3.39466
4676 234 2 -14.6861 -4.15394 4.68238
2593 130 1 -14.2646 -24.7974 3.80102
2591 130 1 -13.2725 -24.417 4.45109
2588 130 1 -12.1857 -24.7658 3.80357
2590 130 1 -12.5188 -23.991 4.82039
2589 130 1 -11.7836 -24.1558 4.31714
7854 393 2 29.1157 35.2263 4.16903
7853 393 2 29.7272 35.8288 4.48537
7852 393 2 29.3585 36.6572 4.27633
4295 215 1 -8.38641 15.9876 4.14684
4292 215 1 -9.53881 16.6283 4.67305
4296 215 1 -8.87745 16.416 3.52822
4400 220 2 52.4574 -24.4652 3.56515
2681 135 1 -7.05251 -4.29674 4.73478
16608 831 3 -7.53796 36.5329 4.86783
506 26 1 -26.2649 -24.9045 4.11449
507 26 1 -25.4581 -24.6616 3.74398
509 26 1 -25.6474 -23.522 3.98704
504 26 1 -25.12 -24.4573 4.77524
508 26 1 -24.8941 -23.8755 3.48843
2024 102 1 17.6377 -4.56789 4.50964
8462 424 2 -22.4396 -3.77481 3.99048
3572 179 1 -0.0831035 -44.0909 4.33138
4588 230 2 58.878 75.0608 4.04658
4589 230 2 59.2314 75.1414 4.8857
4600 230 2 58.7336 76.5963 4.94899
4583 230 2 60.9316 76.8266 4.62602
3574 179 1 0.728981 -42.7435 3.64185
3575 179 1 0.506365 -41.8355 3.46659
4582 230 2 61.686 77.2444 4.35978
578 29 1 22.8047 96.9897 4.56784
580 29 1 22.7938 97.409 3.48226
1879 94 1 81.8023 58.2112 4.86237
4581 230 2 61.8145 77.8164 3.64172
579 29 1 23.4855 97.4055 4.08856
575 29 1 24.1447 97.0456 4.88612
4674 234 2 -15.3413 -2.67516 4.04532
2598 130 1 -14.0395 -21.865 4.00113
2597 130 1 -13.5466 -22.5942 3.69
4671 234 2 -13.4002 -2.85219 4.59931
4672 234 2 -14.1241 -3.30796 4.24943
4673 234 2 -14.6397 -2.9443 3.57733
7240 362 2 25.8366 38.1311 4.99596
7841 393 2 27.5504 36.7994 4.01313
7842 393 2 27.5232 37.0198 4.86301
7843 393 2 27.8628 37.8842 4.7336
7844 393 2 27.1293 37.9551 4.22802
3920 196 1 29.6694 38.2909 4.54371
7851 393 2 29.7435 37.3994 3.82006
7849 393 2 28.373 38.0842 3.35527
4289 215 1 -11.093 17.6689 4.59461
2176 109 1 30.3391 -21.8048 3.35409
5657 283 2 -28.5366 18.1617 3.38971
4298 215 1 -9.09767 17.8561 4.59348
4297 215 1 -9.02232 17.1755 4.03291
5660 283 2 -27.076 17.5074 3.73196
5659 283 2 -27.8794 17.1609 3.93617
16610 831 3 -7.83193 37.9778 4.49441
16609 831 3 -8.18671 37.1602 4.83233
513 26 1 -26.8799 -22.2802 4.75918
512 26 1 -26.1857 -21.6963 4.59066
511 26 1 -25.7325 -22.4615 4.75325
510 26 1 -25.4002 -23.321 4.82905
2778 139 1 -4.27036 -21.7464 4.87889
2777 139 1 -4.62523 -22.3606 4.29563
8464 424 2 -23.6849 -2.90526 4.16854
8465 424 2 -23.2297 -2.61857 4.86973
8463 424 2 -22.9499 -3.03638 3.61581
3576 179 1 -0.0482188 -41.7366 4.24847
4599 230 2 59.6299 76.6757 4.80286
2141 108 1 -0.934663 -22.3698 4.50107
3579 179 1 0.381614 -40.7527 3.98323
3578 179 1 0.593264 -40.9715 4.89601
3577 179 1 0.838754 -41.6349 4.34217
8259 413 2 -16.6942 38.7833 4.04973
8260 413 2 -17.6175 38.9154 3.88064
4981 250 2 1.9445 59.4823 4.66226
1869 94 1 83.0573 59.9247 4.28751
8256 413 2 -16.1797 39.261 4.91154
8258 413 2 -15.8372 38.4093 4.04236
8257 413 2 -15.4078 38.7322 4.82781
2599 130 1 -13.8621 -21.0611 4.39833
2600 130 1 -13.4221 -20.3434 4.77167
7848 393 2 27.606 38.5701 3.66588
7847 393 2 27.781 39.275 4.24413
7845 393 2 27.2111 38.6298 4.82731
2174 109 1 29.8309 -20.7873 4.43558
4284 215 1 -11.1552 19.6193 4.58588
2175 109 1 29.8024 -21.093 3.54313
2173 109 1 30.5187 -20.2696 4.04081
5648 283 2 -28.5375 19.5213 4.61297
5649 283 2 -28.5422 18.6568 4.9361
5655 283 2 -28.5468 19.8744 3.59845
517 26 1 -27.8742 -21.0163 3.92189
516 26 1 -27.3013 -20.3646 4.14849
514 26 1 -27.1269 -21.4218 4.95043
515 26 1 -26.8308 -20.5766 4.85902
2774 139 1 -3.66674 -21.4302 3.89933
6441 323 2 -63.4678 39.4918 4.01049
2780 139 1 -4.47497 -20.2118 4.55181
2776 139 1 -4.81431 -21.5803 3.85686
2773 139 1 -2.78557 -21.618 4.07451
2772 139 1 -2.34676 -20.8083 4.2611
2771 139 1 -1.76033 -20.7668 4.93596
6445 323 2 -61.8307 39.7421 3.65022
6446 323 2 -61.0169 39.3509 3.9235
1872 94 1 81.5411 60.7712 5.39078
4986 250 2 0.487584 61.5002 5.43467
4985 250 2 0.123447 60.614 5.43548
4987 250 2 0.389344 61.3098 6.33823
1871 94 1 82.4026 60.4312 5.45066
7222 362 2 22.3699 41.4094 5.35686
7223 362 2 22.2912 41.3309 6.30009
7133 357 2 4.20661 20.8451 5.1733
7132 357 2 3.41694 21.1818 5.45255
7131 357 2 3.62295 20.8606 6.28731
7130 357 2 4.47446 21.1669 6.46396
7129 357 2 5.35951 21.4025 6.51385
3903 196 1 25.9301 40.6375 6.05981
3904 196 1 25.0409 40.3808 5.85701
13674 684 3 -13.3774 -58.5141 5.71509
3902 196 1 26.7893 40.5205 6.31107
4442 223 2 -32.0187 -39.9956 5.93831
13673 684 3 -12.491 -58.4683 5.92641
3901 196 1 27.0343 40.2451 5.46067
13680 684 3 -11.4488 -58.8477 5.33707
4443 223 2 -31.1253 -39.9853 5.67392
5644 283 2 -30.1177 21.1179 5.63859
5641 283 2 -31.2056 21.3687 6.22832
5642 283 2 -30.3795 21.1306 6.62362
5643 283 2 -29.5806 21.4386 6.29966
5645 283 2 -29.2169 20.9413 5.50891
6014 301 2 -28.4336 -18.4895 5.70041
3915 196 1 30.0057 40.2276 6.17684
3916 196 1 30.9326 40.4082 6.32124
5652 283 2 -27.4636 20.4495 5.59747
6015 301 2 -27.8254 -18.6164 5.05791
809 41 1 -64.8812 -19.531 6.56331
8469 424 2 -24.3117 0.315781 5.61933
8470 424 2 -23.5837 0.474819 6.23952
11990 600 1 -22.9719 41.0023 5.4528
11989 600 1 -22.1638 41.3503 5.39342
2763 139 1 -1.96887 -19.73 5.54246
8471 424 2 -23.0942 1.22012 6.46726
2764 139 1 -2.16351 -19.6713 6.47725
1977 99 1 -0.707885 161.646 5.00972
4990 250 2 -0.736713 60.5512 5.8814
4989 250 2 -1.27729 60.7451 6.60902
6454 323 2 -59.9108 42.8528 5.03382
6455 323 2 -59.1419 42.8043 5.51889
1969 99 1 1.56436 162.273 6.56978
3106 156 1 -56.9985 42.6219 5.73206
6456 323 2 -58.2724 42.5636 5.31519
3103 156 1 -57.0613 43.3151 6.5947
3104 156 1 -57.5072 42.5432 6.54676
3105 156 1 -56.7947 41.9788 6.41872
3107 156 1 -56.4315 42.2756 5.17295
9726 487 1 4.78854 62.5323 6.05024
9728 487 1 5.20619 62.5125 5.19725
9727 487 1 5.67954 62.6244 5.99553
9734 487 1 7.94331 62.3727 5.09975
9735 487 1 7.97231 62.643 5.99062
2167 109 1 29.6409 -17.8583 6.11007
2166 109 1 29.4637 -17.1101 6.55088
2168 109 1 29.1609 -17.8715 5.2918
12503 626 1 10.3486 42.5479 5.41843
6466 324 2 -29.0619 2.90416 6.52055
6011 301 2 -27.4971 -16.9023 5.54816
6013 301 2 -27.655 -18.1637 6.05255
6012 301 2 -28.1997 -17.4624 5.75854
6016 301 2 -27.0643 -18.1306 5.18544
12508 626 1 13.5799 43.1588 5.3212
12509 626 1 14.0745 42.7525 5.9651
12510 626 1 14.8572 43.0417 5.62837
12511 626 1 14.7067 42.8863 6.5773
11993 600 1 -24.3116 42.5017 5.12027
11991 600 1 -23.5328 41.6728 5.21788
5266 264 2 16.3893 42.0825 6.40764
5265 264 2 15.4402 42.293 6.2431
5264 264 2 15.7871 43.0708 6.631
5269 264 2 18.26 42.4409 5.12969
5267 264 2 17.2207 42.0924 5.99824
11988 600 1 -21.6728 41.7738 6.03667
5268 264 2 17.3648 42.4346 5.14
11984 600 1 -21.9967 42.8211 6.09199
1976 99 1 -0.658391 161.916 5.89088
5270 264 2 18.9217 42.8329 5.61256
1975 99 1 -0.0529509 162.317 6.43726
6458 323 2 -58.638 43.6787 5.06138
5279 264 2 20.501 44.5086 6.43129
5278 264 2 21.0425 43.838 6.09047
3101 156 1 -58.3564 44.6324 6.42049
6457 323 2 -57.8477 43.3559 5.31431
3102 156 1 -57.8267 43.8952 6.66352
17 1 1 -17.2515 64.147 5.32091
16 1 1 -17.3293 64.8407 5.89142
8426 422 2 24.122 3.44413 6.64936
8427 422 2 23.9418 3.90361 5.87665
8428 422 2 24.6575 3.48151 5.45832
3279 164 1 23.8435 -35.3342 6.57194
3115 156 1 -55.3674 44.6779 5.60942
8429 422 2 25.4047 3.62864 5.95498
8570 429 2 46.6382 -36.3145 5.18041
8569 429 2 46.3213 -35.5958 5.63636
8568 429 2 45.7648 -35.0978 5.09433
3117 156 1 -54.6691 44.9138 6.60346
8571 429 2 47.5307 -35.9462 5.33131
9721 487 1 7.03525 63.3602 6.16181
8573 429 2 49.0072 -35.2403 5.00198
8574 429 2 48.6637 -35.6872 5.71969
8575 429 2 48.8258 -36.565 5.86234
8576 429 2 49.0475 -36.4204 5.00072
6472 324 2 -30.2161 4.56162 6.14354
12502 626 1 10.0145 43.3376 5.68005
12501 626 1 10.8505 43.4343 5.27532
6467 324 2 -28.5699 3.69707 6.5573
6468 324 2 -29.139 4.25021 6.04459
6469 324 2 -28.4455 4.31926 5.47349
6471 324 2 -29.9304 4.43222 5.29244
6470 324 2 -29.1193 4.77079 5.02973
6010 301 2 -27.2456 -16.1035 5.14512
12064 604 1 -7.53444 -15.4277 6.04143
6001 301 2 -26.0096 -16.1653 6.38796
6002 301 2 -25.4976 -15.3962 6.53528
5261 264 2 15.68 43.5876 5.09076
5262 264 2 16.6212 43.5335 5.08537
5263 264 2 16.3036 43.474 5.95357
4250 213 1 36.1132 -35.1753 6.36644
8282 415 2 16.019 4.60773 5.20348
11983 600 1 -22.5927 43.5166 5.97035
11982 600 1 -22.1068 43.6587 5.2038
8283 415 2 16.8054 4.45176 5.58272
8284 415 2 17.1837 4.82918 6.29835
10318 516 1 38.1947 -55.4302 5.78883
5280 264 2 19.7679 44.824 6.02147
5272 264 2 18.7612 43.4553 6.40217
5271 264 2 19.5249 43.4985 5.86236
10319 516 1 38.8861 -55.3069 6.4089
10317 516 1 38.9309 -55.0035 5.48771
1 1 1 -19.2141 65.2179 5.08722
2 1 1 -18.4638 65.4912 5.6338
3 1 1 -19.1194 65.4984 6.24704
4 1 1 -19.2669 66.1316 5.59349
15 1 1 -17.3761 65.7885 5.83195
14 1 1 -17.637 66.6363 5.7189
7773 389 2 -58.049 6.06024 6.53138
8565 429 2 44.6863 -34.0643 5.3366
3114 156 1 -56.12 45.218 5.6053
3280 164 1 23.6086 -34.4578 6.6529
8561 429 2 43.6016 -33.5077 5.72969
3116 156 1 -55.4478 45.3127 6.25498
8362 419 2 44.8729 -13.7046 6.65516
8567 429 2 45.8455 -34.1803 5.37365
768 39 1 -72.1354 5.57988 5.32735
769 39 1 -72.859 5.02381 5.37056
6479 324 2 -32.1312 5.47082 6.45444
3120 156 1 -53.2187 45.1245 6.48296
763 39 1 -72.6616 6.1893 6.10633
6480 324 2 -31.2848 5.62249 6.04948
12548 628 1 29.6414 -34.0952 5.68899
765 39 1 -71.415 6.66147 5.63677
12547 628 1 29.5391 -33.4365 6.28009
12549 628 1 30.0527 -33.4681 5.08941
12061 604 1 -9.84282 -14.5009 6.46049
12062 604 1 -8.98218 -14.8455 6.40551
5525 277 2 -48.3362 -33.7432 5.22054
5523 277 2 -48.4043 -33.7475 6.62151
12063 604 1 -8.12545 -14.728 6.09097
6860 343 2 12.9944 -73.7272 6.19102
4256 213 1 32.9958 -34.7178 6.58589
4246 213 1 34.3932 -34.7968 5.22625
4247 213 1 34.8443 -34.1096 5.60151
6003 301 2 -26.0837 -14.7335 6.21916
6004 301 2 -26.51 -14.3615 5.51404
10301 516 1 34.7494 -53.4944 6.32275
6859 343 2 13.7507 -73.5435 6.65616
4249 213 1 36.2404 -34.3788 5.9236
10302 516 1 35.5309 -53.9035 6.57507
4248 213 1 35.6786 -34.1594 5.19639
6845 343 2 17.25 -73.9928 5.29934
8285 415 2 17.9106 5.39983 6.40969
10316 516 1 38.4892 -54.1895 5.59934
5489 275 2 -21.156 6.26848 6.49633
7771 389 2 -59.0955 7.37347 6.57498
5 1 1 -19.8081 66.7661 6.01434
7772 389 2 -58.5838 6.71423 6.21197
7770 389 2 -59.428 8.15399 6.22488
7769 389 2 -58.8065 7.61499 5.75896
7768 389 2 -59.5885 7.45179 5.19931
7761 389 2 -57.9133 7.96844 5.2841
13 1 1 -17.7036 67.322 6.28055
12 1 1 -17.6098 68.2262 6.20502
139 7 1 -95.1886 47.7784 5.00519
8564 429 2 44.708 -33.2018 5.57474
8563 429 2 44.2626 -32.632 6.18493
8562 429 2 43.4537 -32.6214 5.80987
10058 503 1 -13.866 7.71217 6.31712
5093 255 2 -33.7343 7.554 5.11388
5092 255 2 -33.6223 6.71956 5.57947
10059 503 1 -14.7091 7.3703 6.50936
5096 255 2 -31.7536 7.51411 5.15415
10057 503 1 -13.2411 8.19708 5.81497
5091 255 2 -32.8841 7.16477 5.97491
764 39 1 -71.9313 6.71024 6.34978
9413 471 1 -51.686 8.16711 6.16317
5418 271 2 9.82749 -12.0962 5.30746
5417 271 2 9.86162 -12.3929 6.17341
9412 471 1 -50.8128 8.30264 6.62953
5416 271 2 10.4724 -13.0614 6.22879
5526 277 2 -48.9848 -33.0921 5.32821
5528 277 2 -48.8779 -31.7853 5.6319
5529 277 2 -48.6115 -32.2714 6.34544
5524 277 2 -48.1307 -33.225 5.94307
5536 277 2 -47.2159 -32.0932 5.73041
5537 277 2 -47.8847 -31.8346 5.18007
10306 516 1 34.1569 -53.265 5.65118
10305 516 1 34.2426 -52.3867 6.12089
6850 343 2 15.8917 -72.9384 5.72237
10304 516 1 35.0625 -52.5694 6.51172
6851 343 2 16.7313 -72.7591 6.09443
10312 516 1 37.3291 -53.0667 5.0705
10313 516 1 37.7387 -52.436 5.61371
1146 58 1 -2.03508 -32.1329 6.61909
10314 516 1 38.6403 -52.5 5.86753
7767 389 2 -60.1554 8.03309 5.58444
7766 389 2 -60.7369 8.2118 6.31778
10315 516 1 38.6435 -53.2884 5.45655
7762 389 2 -58.336 8.78957 5.34932
7763 389 2 -59.1932 8.52227 5.43394
7764 389 2 -59.7877 9.08699 5.89697
10042 503 1 -19.104 9.6026 5.15055
6734 337 2 -19.4165 -10.2753 6.63789
10046 503 1 -17.4412 9.2416 5.468
10047 503 1 -16.7477 8.6948 5.63524
11 1 1 -18.2788 68.7758 6.50505
8655 433 1 -36.0523 -10.1114 5.22864
6837 342 2 4.33451 28.3766 6.66663
6835 342 2 4.70661 28.6774 5.84816
10048 503 1 -16.1609 9.27968 6.04238
6834 342 2 5.28723 29.3337 5.60203
10056 503 1 -14.0338 8.5933 5.75232
7616 381 2 -73.4386 29.3494 5.216
10055 503 1 -13.6438 8.99675 6.49794
6836 342 2 5.23234 28.5061 6.55323
8741 438 1 7.56455 -31.5264 5.27378
5088 255 2 -32.6514 8.59753 6.64835
9414 471 1 -51.6894 8.95603 5.70064
8745 438 1 6.83929 -30.0676 6.21901
7029 352 2 -30.0447 49.1561 5.95039
7030 352 2 -30.8578 49.5901 5.88364
3220 161 1 -89.3178 29.6183 5.10907
3219 161 1 -88.4882 29.2643 5.28288
3217 161 1 -89.4417 28.7143 6.58007
3218 161 1 -88.9946 29.3043 6.05025
5534 277 2 -47.9795 -31.3131 6.04259
5535 277 2 -47.0663 -31.2095 6.06085
11063 554 1 -26.8556 9.77669 5.11951
1436 72 1 -25.927 -50.3791 5.64796
1437 72 1 -26.2193 -51.1625 5.2339
5187 260 2 -45.245 28.9608 6.15475
5188 260 2 -44.3804 28.655 6.3614
1433 72 1 -24.681 -50.3115 5.29811
5186 260 2 -44.9781 28.4807 5.42719
1432 72 1 -23.8251 -50.679 5.45302
8588 430 2 35.9045 -10.0825 6.38341
5189 260 2 -43.4832 28.4003 6.08138
1424 72 1 -21.8725 -50.8403 5.23682
1427 72 1 -22.3534 -50.8173 6.52654
1431 72 1 -22.8945 -50.8504 5.39844
1430 72 1 -22.6853 -50.0289 5.70939
1425 72 1 -21.5146 -50.4573 6.02367
7765 389 2 -60.6617 8.9291 5.7607
10176 509 1 21.3233 50.3763 5.4496
6730 337 2 -18.9974 -8.49487 5.87061
10175 509 1 20.6573 50.9065 5.08476
6731 337 2 -18.844 -9.19643 6.43291
10178 509 1 22.0327 51.2856 5.51195
10179 509 1 22.2915 51.0063 6.33158
6272 314 2 -17.1567 -29.7493 5.01741
6271 314 2 -16.9872 -29.8251 5.93409
8654 433 1 -35.7482 -9.20688 5.14062
8653 433 1 -35.5545 -8.62933 5.80885
10049 503 1 -15.7239 10.0342 6.11183
6270 314 2 -16.3028 -29.2314 6.16885
10050 503 1 -15.1235 10.4798 6.5987
6833 342 2 5.50026 30.2194 5.73864