ITEM: TIMESTEP
22000000
ITEM: NUMBER OF ATOMS
17280
ITEM: BOX BOUNDS pp pp pp
0.0000000000000000e+00 2.0000000000000000e+01
0.0000000000000000e+00 2.0000000000000000e+01
0.0000000000000000e+00 1.2000000000000000e+02
ITEM: ATOMS id mol type xu yu zu
13420 671 3 13.8722 60.6764 1.27536
220 11 1 -1.75046 -19.5564 1.65692
5560 278 3 45.743 -18.2092 1.42544
13413 671 3 14.2909 61.7809 1.18377
13414 671 3 13.4663 62.1008 1.46492
298 15 1 2.91041 -33.9917 1.64642
300 15 1 4.00352 -33.1169 1.24866
10121 507 1 26.1701 49.9091 1.34161
8021 402 3 67.2036 -31.0152 1.56922
6899 345 3 -0.463122 29.9447 1.21581
6900 345 3 -1.03952 29.2534 1.44461
6897 345 3 0.0780954 31.456 0.514984
7824 392 3 4.54333 -8.83872 1.5731
7821 392 3 5.29457 -9.87009 0.272449
7828 392 3 6.41312 -8.60275 1.58943
11837 592 1 -13.6966 -48.4766 0.27448
7822 392 3 5.23112 -9.39783 1.06496
11839 592 1 -12.6522 -49.7942 0.594575
11840 592 1 -13.0253 -49.7032 1.47512
11838 592 1 -13.2365 -49.1568 0.717299
3720 186 1 51.3938 11.0229 1.02691
3719 186 1 52.1283 10.9283 1.53045
16300 815 3 36.8436 51.5666 0.646341
3462 174 1 58.3986 71.4056 0.347672
6898 345 3 -0.471394 30.8234 0.963983
4239 212 1 20.3236 33.2166 0.451588
11835 592 1 -14.1655 -47.1641 0.0568206
11836 592 1 -13.3715 -47.6411 0.0874372
16981 850 3 25.1224 72.8205 0.805294
7830 392 3 6.09194 -7.0539 1.20124
7829 392 3 6.68299 -7.72107 1.44317
11824 592 1 -12.0564 -47.2689 0.92671
11822 592 1 -10.8909 -47.5971 1.34327
11821 592 1 -10.6573 -47.6594 0.456666
16673 834 3 49.9485 32.9531 1.54302
11823 592 1 -11.2494 -46.86 0.902073
4980 249 3 52.0602 -47.0917 1.05608
4978 249 3 53.0845 -47.3284 1.64161
7943 398 3 -4.26267 32.642 1.65475
7942 398 3 -3.94917 32.5788 0.778052
3463 174 1 58.2217 72.215 0.786263
16299 815 3 36.957 52.1475 1.41037
1173 59 1 56.9661 -26.929 0.783684
1172 59 1 56.6841 -26.7126 1.60305
6896 345 3 -0.179162 32.045 1.19299
3461 174 1 59.1373 71.9617 0.449212
3464 174 1 58.7433 71.9725 1.50645
4236 212 1 20.8114 34.9224 1.01948
4237 212 1 21.4362 34.5107 0.501572
4238 212 1 20.7602 33.9913 0.183248
11833 592 1 -14.0048 -45.5999 0.342299
11832 592 1 -14.6037 -45.9911 0.891229
11831 592 1 -14.6626 -45.3705 1.56367
7831 392 3 6.4917 -6.40128 0.713262
7832 392 3 7.22609 -6.60448 0.192576
11825 592 1 -12.0487 -46.6441 1.61167
7833 392 3 7.42416 -5.71036 0.0555863
7834 392 3 8.00513 -5.60294 0.724541
7835 392 3 7.37102 -5.15695 1.15212
16672 834 3 49.8246 33.6397 0.974165
16671 834 3 49.5822 34.5328 1.19716
1174 59 1 56.6285 -26.1413 0.494053
7946 398 3 -4.82899 34.2314 1.5737
7947 398 3 -4.28189 33.911 0.908096
7948 398 3 -3.99476 34.6381 1.39228
1176 59 1 57.7468 -25.3111 1.41745
1175 59 1 57.1909 -25.4043 0.702691
4240 212 1 19.8667 33.974 0.690537
6893 345 3 -0.538061 34.0988 1.61013
6892 345 3 -1.19894 33.5554 1.35114
12120 606 1 20.7681 -22.0072 1.61832
5479 274 3 -3.61023 -21.6725 1.61921
5478 274 3 -3.99824 -22.4639 1.37311
5480 274 3 -3.46136 -21.7251 0.673721
4220 211 1 -1.31981 -22.8569 1.09771
7284 365 3 40.1348 39.1751 1.58325
7989 400 3 -39.1716 1.60443 2.72106
4028 202 1 1.52326 40.0645 3.2379
4029 202 1 1.76164 40.7576 2.68156
4038 202 1 2.93655 40.3982 3.06881
16335 817 3 23.1519 1.11392 2.08114
4037 202 1 3.50124 41.1399 3.148
16336 817 3 24.0613 1.13394 2.07712
16338 817 3 24.3794 0.216856 2.59366
16337 817 3 24.4853 1.03756 2.93183
5558 278 3 46.3675 -19.194 2.49381
5557 278 3 46.5381 -19.8422 3.14225
3765 189 1 5.45986 21.4331 2.94112
5559 278 3 46.5344 -18.591 1.79479
3857 193 1 5.34554 -59.797 2.71143
3858 193 1 5.39148 -59.1955 1.95947
3859 193 1 5.75028 -59.9792 1.68278
4358 218 3 9.5173 1.30014 3.04493
12475 624 1 10.3114 -39.4319 2.67095
13417 671 3 13.0089 60.6902 2.80549
13416 671 3 12.8019 60.7348 1.94058
13415 671 3 13.1563 61.5827 2.17197
11423 572 1 74.7567 20.2902 2.19641
11421 572 1 74.7691 21.4948 2.73787
11422 572 1 74.9744 21.1237 1.86535
13419 671 3 13.8576 60.8352 2.19633
13418 671 3 13.8613 60.5625 3.07873
11424 572 1 75.5945 20.6186 2.40895
11425 572 1 75.679 21.4945 2.65664
218 11 1 -2.94139 -19.3465 2.82513
219 11 1 -2.12584 -19.6915 2.55444
5908 296 3 -21.7581 1.59551 2.5956
5906 296 3 -21.6784 0.967448 3.31359
292 15 1 0.510192 -37.0337 1.95044
291 15 1 0.826828 -37.4176 2.74104
7992 400 3 -38.3876 3.19598 2.1352
7991 400 3 -38.366 2.23779 2.20366
7990 400 3 -38.3152 1.84719 3.0279
16334 817 3 22.9558 2.01398 2.16958
7993 400 3 -37.481 3.0736 2.05785
16333 817 3 23.4906 2.3213 2.85119
3766 189 1 4.96771 22.1397 2.66773
3764 189 1 5.96828 22.0176 2.4541
3763 189 1 6.69447 21.6728 2.90345
4359 218 3 9.57669 2.18076 2.77054
12461 624 1 11.5357 -36.6685 3.29175
4360 218 3 10.5186 2.33926 2.82707
11600 580 1 30.2282 3.28084 2.33369
12463 624 1 11.7678 -37.9106 2.98796
12465 624 1 13.197 -37.789 3.26613
12464 624 1 12.4061 -37.3169 3.32414
13412 671 3 14.2059 62.0328 2.04258
13411 671 3 13.6367 62.7344 2.37566
13410 671 3 14.3789 62.7034 2.88937
11426 572 1 76.3436 22.1612 2.35907
11427 572 1 75.4425 22.4006 2.55803
13409 671 3 15.1033 63.2487 3.12115
13408 671 3 15.996 63.3282 3.05422
5909 296 3 -22.6386 1.82141 2.61486
5910 296 3 -22.4496 2.08049 1.78744
5911 296 3 -22.8956 2.8981 1.6856
5912 296 3 -22.5809 2.952 2.55725
3520 176 1 39.5577 -37.7478 2.61529
3519 176 1 39.3992 -36.8554 2.76209
295 15 1 1.33966 -35.6205 2.30431
294 15 1 0.587959 -36.1769 2.33949
5918 296 3 -19.5464 4.84311 3.22257
289 15 1 1.45506 -36.331 3.06033
7994 400 3 -37.4225 3.51071 2.90172
16325 817 3 26.5112 4.44326 3.17219
5231 262 3 49.3381 4.14101 2.72121
5232 262 3 49.6792 4.84215 2.25357
5235 262 3 51.4071 4.02435 2.54916
5233 262 3 50.4111 4.86508 1.72903
11599 580 1 30.3403 3.57172 3.18915
5234 262 3 50.8821 4.04348 1.78563
5236 262 3 51.3668 4.90414 2.27166
11595 580 1 32.9775 4.15172 3.0847
11594 580 1 33.8011 3.75676 2.98947
7228 362 3 -4.68542 -15.5418 3.23731
760 38 1 -61.6907 24.9022 3.32689
7233 362 3 -2.95056 -15.566 3.04353
5913 296 3 -21.9905 3.58137 2.33655
293 15 1 -0.146434 -36.3737 1.81413
5916 296 3 -20.5267 4.22273 2.84258
5915 296 3 -21.0502 4.15777 2.13009
5914 296 3 -21.4037 3.87597 2.98601
296 15 1 1.632 -34.7647 2.46757
297 15 1 2.41383 -34.6854 1.96129
8030 402 3 62.0471 -33.3339 3.30271
8000 400 3 -36.7991 5.28279 2.55437
8029 402 3 62.8298 -33.8093 2.95603
299 15 1 3.70967 -33.6749 1.8937
8026 402 3 64.5095 -33.4661 2.9182
3613 181 1 47.395 26.1743 2.72816
3614 181 1 47.2312 25.4333 3.25245
3611 181 1 48.8974 26.5793 2.22257
3610 181 1 49.7431 26.632 2.56204
5237 262 3 51.8232 5.40948 2.88424
7229 362 3 -5.07542 -14.708 3.3146
11581 580 1 34.4375 5.89 2.55928
11582 580 1 34.6139 6.53944 3.14377
7231 362 3 -3.38654 -14.2437 2.76753
7230 362 3 -4.26093 -14.3945 3.02514
7232 362 3 -2.55257 -14.7159 2.90951
759 38 1 -61.0601 25.259 2.80851
758 38 1 -61.5395 25.9097 2.38461
756 38 1 -60.7516 26.6031 3.16036
8031 402 3 62.04 -32.5706 2.79897
8032 402 3 62.7153 -32.7871 2.19466
18 1 1 43.0936 27.5966 3.29724
8033 402 3 63.4442 -32.227 2.20297
8025 402 3 64.7373 -32.6767 2.51293
16821 842 3 -35.9468 47.9164 3.10026
8023 402 3 65.8536 -32.0457 1.71052
8024 402 3 65.2219 -31.9071 2.35129
16321 817 3 26.6011 7.05259 2.53165
8022 402 3 66.7452 -31.8579 1.6764
3612 181 1 48.0056 26.7471 2.29285
3049 153 1 -12.1025 -51.7679 2.30588
3048 153 1 -12.3407 -52.084 3.18034
4361 219 3 28.7109 7.6784 2.86042
3609 181 1 50.0907 27.5638 2.77334
4374 219 3 32.074 6.85878 3.27319
4375 219 3 32.4865 7.64642 3.07781
1 1 1 36.4034 26.6711 3.27516
757 38 1 -61.4819 26.8088 2.62462
8034 402 3 63.2362 -31.3243 2.06829
8038 402 3 62.4645 -30.6803 2.9944
19 1 1 43.0512 28.4904 3.31713
8036 402 3 63.9866 -31.1028 2.73324
8035 402 3 64.0368 -30.9641 1.85481
8037 402 3 63.3403 -30.4728 2.87982
10122 507 1 26.5682 49.6626 2.07345
10123 507 1 26.0813 48.861 2.18247
10125 507 1 25.8563 48.3892 3.18816
10124 507 1 26.6824 48.7447 2.88036
3051 153 1 -12.1168 -50.5585 2.51094
16840 842 3 -30.0497 48.601 2.30569
3050 153 1 -11.429 -51.2137 2.56323
16839 842 3 -30.449 48.7514 3.12488
16837 842 3 -30.6302 49.8125 3.08921
4973 249 3 51.0578 -50.0868 3.28788
13838 692 3 53.0341 29.7179 2.9784
10475 524 1 -8.08957 8.63525 3.26064
13836 692 3 54.1276 28.5916 2.61309
13837 692 3 53.4718 28.9121 3.12067
13839 692 3 53.9291 29.9229 2.81177
13840 692 3 54.7563 29.5913 2.46715
13835 692 3 54.6525 29.0188 3.28339
13834 692 3 55.4113 29.6198 3.19603
13833 692 3 56.2211 29.196 3.3292
11783 590 1 -42.3639 68.6524 3.14651
11782 590 1 -42.0197 69.5139 3.1324
2854 143 1 -2.0013 -10.2748 1.94789
2850 143 1 0.843749 -8.54259 2.12285
2851 143 1 0.150842 -9.09627 1.89823
8040 402 3 61.9252 -29.3857 2.97587
7823 392 3 4.94159 -9.62117 1.93064
12695 635 1 44.4104 30.895 2.64494
12697 635 1 43.5646 30.678 3.10381
12696 635 1 43.6452 31.0507 2.22103
12694 635 1 44.9679 30.3904 3.14532
7825 392 3 5.42914 -8.69349 1.82827
7827 392 3 6.39811 -8.66676 2.54779
7826 392 3 5.87354 -9.37286 2.24467
3052 153 1 -12.4652 -49.8915 3.04056
3053 153 1 -12.6667 -49.0705 2.57492
3054 153 1 -11.8821 -48.934 2.18889
8674 434 1 -30.6099 30.8575 3.18222
4969 249 3 50.7357 -48.4085 2.02927
4970 249 3 51.4138 -48.5409 2.67086
4974 249 3 51.7788 -49.7933 2.74579
4975 249 3 52.5764 -49.4201 2.45673
4976 249 3 52.9573 -48.6041 2.42781
2860 143 1 -5.39672 -9.21547 2.77769
4162 209 1 55.7664 -28.6184 2.51233
11781 590 1 -41.9279 70.4481 2.93376
2857 143 1 -3.26792 -8.93526 2.75236
2856 143 1 -3.21099 -9.10083 1.82462
2855 143 1 -2.44848 -9.47403 2.10054
2852 143 1 -0.732081 -9.02225 2.19655
2853 143 1 -1.24008 -9.83598 2.34627
2849 143 1 0.0201456 -8.13155 2.15202
2847 143 1 0.755444 -8.05468 3.23696
2846 143 1 1.5777 -8.06507 2.80206
5299 265 3 -57.6504 53.3185 2.3552
2845 143 1 2.48917 -8.29798 2.65235
2844 143 1 3.03782 -7.59555 2.86757
2843 143 1 3.89311 -7.16275 3.03157
16985 850 3 24.9329 73.0079 2.8373
16982 850 3 25.2695 72.6564 1.72184
3057 153 1 -13.5967 -47.7897 3.10901
16984 850 3 25.8118 73.2358 2.8903
3059 153 1 -14.9179 -48.2439 2.93332
3058 153 1 -14.2332 -47.8025 2.44951
3055 153 1 -12.2499 -48.069 2.35953
3056 153 1 -12.9622 -47.4611 2.53249
8670 434 1 -32.1645 32.8649 3.32028
16675 834 3 49.2162 33.0233 2.49263
3716 186 1 51.3605 12.5198 2.39199
4968 249 3 50.5004 -48.0866 2.90541
3715 186 1 51.0182 12.6346 3.22672
16674 834 3 50.0943 32.751 2.47101
3718 186 1 52.1804 11.7767 1.93649
3717 186 1 52.2742 12.5429 2.43666
4977 249 3 53.2973 -48.1851 1.67114
13724 687 3 -25.8891 32.8406 3.27223
1161 59 1 54.6576 -27.1619 2.16757
4161 209 1 55.0808 -28.0312 2.44737
7944 398 3 -3.9589 32.9548 2.4446
4163 209 1 55.7755 -28.081 3.27404
16297 815 3 37.9224 52.7194 1.7558
16298 815 3 37.7426 51.7845 1.76602
3466 174 1 58.1826 71.78 3.15373
16295 815 3 36.9074 52.1025 2.92888
16296 815 3 37.6503 52.4851 2.60091
2848 143 1 -0.206099 -8.06364 3.02071
6895 345 3 -0.495991 32.749 1.69558
3465 174 1 58.6498 72.0175 2.40045
6890 345 3 -1.01499 32.9409 2.97138
4235 212 1 21.4892 34.8761 1.66734
4234 212 1 20.8283 34.3517 1.98313
6894 345 3 0.124467 33.4575 1.74172
4233 212 1 20.8424 34.2315 2.8775
4232 212 1 20.0024 34.3825 3.27628
5300 265 3 -57.1032 54.0969 2.28934
5298 265 3 -58.2477 53.8206 2.80591
5297 265 3 -57.5186 54.0647 3.27503
16987 850 3 24.5958 74.7863 3.01458
16986 850 3 24.9141 73.9201 2.99155
16983 850 3 25.6045 73.4841 2.02666
11828 592 1 -14.0179 -45.558 2.5585
11826 592 1 -12.3359 -46.1845 2.2966
11827 592 1 -13.091 -45.7081 2.47834
2715 136 1 -32.1942 14.7242 2.79766
2718 136 1 -31.064 13.9676 2.15855
2719 136 1 -31.3667 14.6799 1.67296
16669 834 3 49.7373 34.7053 2.42812
2717 136 1 -31.1289 14.6817 2.80773
8669 434 1 -31.5608 33.5894 3.182
16676 834 3 49.5362 33.7137 2.92787
16670 834 3 50.2868 34.4363 1.74411
4979 249 3 52.5072 -46.5816 1.67177
4144 208 1 -7.10907 -85.0609 2.6792
5782 290 3 32.2047 -6.21834 3.09093
4143 208 1 -6.60903 -85.7392 2.96018
1164 59 1 54.9498 -25.6083 3.20496
1162 59 1 54.5403 -26.2905 2.53354
1163 59 1 54.3879 -25.4286 2.46554
7945 398 3 -4.3542 33.6133 1.94375
1165 59 1 55.8034 -25.5995 2.85654
1169 59 1 57.9596 -26.5541 2.96424
1171 59 1 56.8664 -25.7998 1.76909
1167 59 1 56.7267 -26.2478 2.58976
1166 59 1 56.7035 -25.3856 2.941
1170 59 1 57.6513 -25.9765 2.33423
1177 59 1 58.4671 -25.3495 2.01468
6891 345 3 -1.1482 33.5552 2.26257
13398 670 3 41.6569 75.6766 3.31638
13397 670 3 41.0364 76.2107 2.84521
12109 606 1 22.8837 -23.6309 3.25937
16988 850 3 24.9064 75.6454 3.17495
11830 592 1 -14.6957 -44.6224 2.05293
11829 592 1 -14.0501 -44.6526 2.69704
2720 136 1 -31.7495 15.487 1.87646
7836 392 3 7.14402 -4.70685 1.91216
7838 392 3 8.2353 -3.49369 2.43902
7837 392 3 7.4362 -3.9297 2.26708
7840 392 3 7.37112 -3.65462 3.22032
16666 834 3 49.8582 35.5133 1.67673
16667 834 3 49.1772 35.9627 2.12988
16668 834 3 49.5723 35.512 2.86656
2716 136 1 -31.5984 15.4076 2.97995
1680 84 1 -9.04556 16.5338 2.58185
16665 834 3 50.6642 35.4022 2.09821
16664 834 3 50.6713 35.2951 3.01481
1679 84 1 -8.40806 16.5299 3.32644
4145 208 1 -7.87616 -84.6823 3.10804
7953 398 3 -5.90797 35.6691 2.45469
7954 398 3 -6.50089 35.9596 3.15893
7952 398 3 -5.05097 35.6122 2.79157
27 2 1 -64.3687 -23.5115 2.69251
26 2 1 -63.9714 -23.5603 1.89072
7950 398 3 -3.6988 35.5747 2.86244
7949 398 3 -3.89087 35.3574 1.97317
4219 211 1 -1.82505 -23.3502 1.72217
25 2 1 -63.0973 -23.8431 1.92957
7300 365 3 37.9359 35.5986 1.88106
7298 365 3 38.1125 36.1645 3.20196
7299 365 3 38.1598 35.3995 2.72332
24 2 1 -62.7601 -23.3542 2.68691
1178 59 1 59.1736 -24.807 2.304
1179 59 1 58.9516 -23.8871 2.36802
1180 59 1 59.8646 -23.9481 2.53752
12118 606 1 20.8889 -22.1571 2.72726
12119 606 1 20.5447 -22.7631 2.0824
12111 606 1 22.8356 -22.3365 3.31115
12110 606 1 22.2248 -22.9967 3.2737
1600 80 1 -31.6946 18.1374 3.09233
7839 392 3 7.61259 -2.85388 2.77102
8271 414 3 69.1244 -2.86939 3.2208
8272 414 3 69.9703 -3.18232 3.30198
8273 414 3 70.4075 -2.3999 3.17623
4157 208 1 -8.13378 -82.0021 3.29022
30 2 1 -65.7729 -22.8999 3.02496
31 2 1 -65.3852 -22.0274 2.91913
5476 274 3 -4.59847 -22.2128 2.27326
5477 274 3 -3.7537 -22.561 2.27269
23 2 1 -62.8127 -22.4527 2.70429
4218 211 1 -1.56881 -22.7757 2.35566
4217 211 1 -0.931975 -22.2134 2.79008
7285 365 3 40.8067 38.9414 2.19969
7286 365 3 40.5151 39.4427 2.95521
4040 202 1 1.70157 39.2104 2.57864
4039 202 1 2.49707 39.784 2.53292
3860 193 1 6.61201 -60.2044 1.66914
5556 278 3 46.6966 -20.7884 3.05918
8275 414 3 69.6164 -1.39514 2.85664
12476 624 1 9.89592 -40.191 2.99857
4158 208 1 -8.35406 -81.1901 2.94797
12477 624 1 10.7117 -40.5518 3.07853
8274 414 3 70.5228 -1.63938 2.60487
5464 274 3 -7.09517 -21.122 3.29885
4160 208 1 -7.83957 -80.9957 2.14263
4159 208 1 -7.99132 -80.3489 2.79167
33 2 1 -65.4178 -21.0766 3.32488
32 2 1 -65.3746 -21.2679 2.43457
5475 274 3 -4.39033 -21.31 2.15948
5474 274 3 -3.86156 -20.6751 2.59969
34 2 1 -64.6251 -21.5516 3.1427
22 2 1 -62.6438 -21.5865 2.87681
21 2 1 -62.6272 -20.8333 2.35748
7282 365 3 39.4156 39.2834 2.26987
7281 365 3 38.6242 38.8412 2.42053
7283 365 3 39.8079 38.5002 2.09482
4031 202 1 1.3167 41.307 3.93955
7988 400 3 -39.7821 1.37662 3.40404
4026 202 1 0.0969829 40.2821 3.64554
4393 220 3 21.5481 20.2764 4.2468
4027 202 1 0.880576 40.682 3.33859
5902 296 3 -19.9125 1.00948 4.43758
4032 202 1 2.04444 41.2342 4.48232
4030 202 1 2.0427 40.8809 3.53129
4036 202 1 2.94697 41.1891 3.93753
4035 202 1 3.22602 40.9982 4.75485
3855 193 1 4.55941 -59.6192 4.27379
16340 817 3 23.582 0.183391 3.94401
16330 817 3 24.4847 1.48066 4.51741
3856 193 1 5.07672 -59.5503 3.51959
3854 193 1 5.33576 -59.3901 4.75761
6990 350 3 85.8485 1.49448 4.57369
6991 350 3 86.0939 0.864299 3.94956
3762 189 1 7.17931 21.2882 3.55171
3761 189 1 7.79212 20.5626 3.46371
6992 350 3 86.8432 0.931382 4.53297
6993 350 3 87.5293 1.46334 4.88666
1595 80 1 -31.2247 20.5465 4.08973
1594 80 1 -31.6109 21.3463 4.27195
7000 350 3 89.8807 1.25227 4.99909
12473 624 1 11.3024 -38.9515 4.08031
12474 624 1 10.767 -38.9495 3.34318
12478 624 1 10.7662 -39.9338 3.76999
12479 624 1 10.1735 -39.9237 4.47608
13574 679 3 32.4088 21.3777 3.39038
13573 679 3 32.3676 20.8254 4.22277
12468 624 1 13.1589 -39.3825 4.88649
13575 679 3 32.741 21.6432 4.19713
13572 679 3 33.1368 20.4548 3.83607
12471 624 1 11.8045 -38.5748 4.78895
13403 671 3 14.5362 60.1303 4.0463
12467 624 1 13.776 -38.9301 4.31929
12466 624 1 13.4469 -38.6225 3.54406
11432 572 1 75.2329 20.826 4.54355
13404 671 3 15.3303 60.2148 3.55688
13405 671 3 15.7989 61.0131 3.58298
13406 671 3 16.4261 61.6661 3.50035
11431 572 1 75.0291 21.6375 4.1555
5905 296 3 -21.8791 1.2099 4.19129
215 11 1 -2.90863 -19.9744 4.52381
216 11 1 -2.60295 -19.3688 3.8694
4023 202 1 -1.45648 40.2004 4.71889
4022 202 1 -1.1263 41.0742 4.84159
5903 296 3 -20.547 1.45068 3.8743
7987 400 3 -39.5245 2.2327 3.63369
290 15 1 1.35189 -37.2514 3.46283
7985 400 3 -38.7532 3.13791 4.84776
7986 400 3 -39.1007 2.39946 4.43036
286 15 1 2.1649 -37.5107 4.40023
287 15 1 2.21637 -36.8162 3.81424
16332 817 3 23.0917 2.23027 3.69233
285 15 1 2.53139 -36.7263 4.87729
3769 189 1 4.46523 23.2285 4.81811
3767 189 1 4.55191 22.0511 3.48775
3768 189 1 4.1407 22.6941 4.11115
16331 817 3 23.6657 1.78595 4.29502
16329 817 3 25.1071 2.19995 4.43507
16328 817 3 25.1089 2.91277 3.82891
4341 218 3 6.61389 2.04769 4.03566
4342 218 3 6.36217 2.44115 4.87003
16327 817 3 25.988 2.87902 3.53107
4345 218 3 8.20544 2.92748 4.91007
1590 80 1 -31.7312 23.1742 3.43839
4343 218 3 7.24132 2.79001 4.74903
4344 218 3 7.87886 2.43261 4.25
4357 218 3 9.11243 1.88549 3.6783
1593 80 1 -30.9982 21.7124 4.83269
1592 80 1 -30.8615 22.6017 4.56964
1591 80 1 -30.8489 23.0797 3.79743
4356 218 3 9.96838 1.719 3.91481
12462 624 1 11.3113 -37.4759 3.61721
4355 218 3 10.1474 2.49104 4.3776
12472 624 1 10.9171 -38.333 4.59708
4351 218 3 11.7738 2.75808 4.48475
13576 679 3 33.2041 22.1166 4.8408
11592 580 1 34.5839 3.03488 3.94115
11591 580 1 34.8746 3.07899 4.78627
13577 679 3 33.4293 22.7653 4.2096
11429 572 1 75.5051 22.5271 4.29939
11428 572 1 75.3901 22.229 3.46504
13407 671 3 16.2873 62.5734 3.34987
11430 572 1 75.9048 21.6992 4.395
7235 362 3 -3.70095 -16.7126 4.11385
5907 296 3 -21.9935 1.88068 3.42139
7236 362 3 -3.25719 -17.2573 4.75137
11439 572 1 77.9715 22.8466 4.39959
3518 176 1 39.6915 -36.7812 3.6146
3517 176 1 39.1536 -36.7401 4.36033
11440 572 1 78.5127 22.8696 3.6794
5904 296 3 -21.2811 1.899 4.27576
3516 176 1 39.7987 -37.1278 4.88264
5920 296 3 -19.7624 3.82138 4.61864
5919 296 3 -19.4662 4.4629 4.04421
288 15 1 1.61283 -36.1785 3.95705
11 1 1 41.068 24.6994 4.77509
7995 400 3 -36.9091 4.13019 3.3458
7996 400 3 -37.41 4.1304 4.15248
7997 400 3 -37.7621 4.6298 3.46121
281 15 1 2.71282 -35.0249 4.85674
1581 80 1 -35.6725 23.9367 3.45564
1582 80 1 -35.358 24.4255 4.16082
284 15 1 3.33974 -36.3373 4.86368
16326 817 3 26.5438 3.61372 3.5857
1583 80 1 -34.6574 23.9418 3.83277
1584 80 1 -34.1917 23.4732 4.48375
17002 851 3 -54.2112 4.54493 4.90887
1586 80 1 -33.25 23.8768 4.69728
1589 80 1 -32.44 23.3769 3.97657
1587 80 1 -32.575 24.4829 4.52786
1588 80 1 -32.6332 24.1993 3.6373
4346 218 3 8.74679 3.66105 4.64533
4348 218 3 9.87488 3.62525 4.41165
4347 218 3 9.3034 4.35221 4.36704
5230 262 3 48.78 4.09543 3.46447
11598 580 1 30.3564 4.482 3.35915
11597 580 1 31.258 4.32336 3.5938
4349 218 3 10.8185 3.7529 4.39612
11596 580 1 32.1288 4.44272 3.46896
13579 679 3 32.7874 24.1013 4.46257
4350 218 3 11.7072 3.66611 4.18888
11593 580 1 34.4205 3.88883 3.63994
13578 679 3 33.5756 23.6752 4.32529
7226 362 3 -5.15035 -15.3444 4.09648
7225 362 3 -5.61848 -15.9504 4.66971
13580 679 3 33.3739 24.6318 3.9345
7227 362 3 -4.23023 -15.3162 3.96307
11590 580 1 35.3363 3.66218 4.27651
11589 580 1 35.7516 4.17118 4.96272
7234 362 3 -3.14875 -16.2627 3.54613
11587 580 1 37.4331 4.37216 4.50705
11586 580 1 36.9945 4.91454 3.89578
5917 296 3 -20.4463 4.80998 3.49366
6682 335 3 19.3014 -35.7193 4.85342
6681 335 3 19.9331 -35.0599 4.66261
8 1 1 40.527 25.7729 4.14341
10 1 1 41.3934 25.2183 4.07899
9 1 1 41.216 26.006 3.60135
13 1 1 41.452 25.9636 4.9981
7998 400 3 -37.7962 5.56908 3.42918
7999 400 3 -36.9762 5.14057 3.44777
8028 402 3 63.6192 -33.6192 3.3497
16324 817 3 26.3681 5.04233 3.88004
17001 851 3 -54.4466 5.28955 4.45387
16323 817 3 26.252 5.88923 3.55558
10130 507 1 25.7941 46.6331 4.11487
10131 507 1 25.4436 46.2579 4.8614
3615 181 1 47.2183 25.8384 4.07514
3616 181 1 46.8432 25.3783 4.77499
5228 262 3 48.1801 5.34459 3.96406
3618 181 1 47.9353 25.1731 4.97
5229 262 3 48.9721 5.00445 3.58388
5227 262 3 48.4099 6.02802 4.63849
4363 219 3 28.9727 6.53275 3.47436
4366 219 3 29.3417 5.50444 4.91931
4365 219 3 29.3752 6.16954 4.23234
4364 219 3 29.6388 5.92821 3.3897
421 22 1 -9.07097 -54.4016 4.37758
4371 219 3 31.0896 6.39125 4.86751
4373 219 3 31.4844 6.5571 3.95118
4372 219 3 30.5587 6.60835 4.11626
5238 262 3 52.2024 5.71751 3.72096
5239 262 3 52.6244 6.14537 4.4326
5240 262 3 53.2308 5.6089 4.00723
12818 641 1 54.2895 25.0953 4.82824
12819 641 1 54.3372 26.0225 4.95583
11584 580 1 35.4817 5.85464 3.98702
11585 580 1 36.383 5.57473 3.93565
8161 409 3 -4.32705 -34.8448 4.96209
5 1 1 38.0528 25.3696 4.76038
4 1 1 37.3441 25.8832 4.45191
6695 335 3 17.9375 -33.9902 3.39837
7 1 1 39.6408 25.7543 4.04077
6692 335 3 19.9084 -33.5448 4.79491
6 1 1 38.9084 25.2733 4.40627
6694 335 3 18.511 -33.8074 4.0339
754 38 1 -59.8437 27.4835 4.50082
14 1 1 41.3899 26.765 4.60629
2979 149 1 1.91551 28.1355 4.77934
15 1 1 42.274 26.9773 4.89186
17 1 1 42.855 26.9868 3.91678
16 1 1 42.0155 27.3151 4.09297
8027 402 3 64.3259 -33.1256 3.75503
10128 507 1 24.8642 48.0838 3.82883
16822 842 3 -36.1164 48.0308 4.05172
16322 817 3 26.6002 6.71212 3.40663
10129 507 1 25.2631 47.2446 3.72407
10127 507 1 25.7724 47.9624 3.99824
10126 507 1 26.5748 47.9223 3.54678
15156 758 3 45.8056 7.85717 4.99502
15157 758 3 46.6202 8.24884 4.62377
15159 758 3 47.185 7.20527 4.99332
4362 219 3 28.2324 7.03473 3.34109
3047 153 1 -12.3968 -52.1827 4.17195
3608 181 1 49.7342 27.3701 3.58628
3045 153 1 -10.8961 -51.8219 4.25187
3046 153 1 -11.644 -51.7154 3.69711
5226 262 3 48.7984 6.82788 4.9157
5225 262 3 49.4883 7.34612 4.71559
3044 153 1 -11.5129 -52.0702 4.92224
3607 181 1 50.4011 27.6391 4.19696
10473 524 1 -8.68661 8.23779 4.64273
4376 219 3 33.165 8.04603 3.59114
10474 524 1 -8.28305 7.9304 3.8509
4379 219 3 32.5694 7.31287 4.54919
4380 219 3 32.2977 8.17046 4.6777
4377 219 3 34.0233 7.88815 3.79779
4378 219 3 33.4664 7.51504 4.44193
16281 815 3 35.6457 48.2997 4.59457
16282 815 3 35.065 47.5798 4.50661
16283 815 3 35.5826 46.8384 4.6889
11583 580 1 35.4032 6.67708 3.63349
2 1 1 36.477 26.6696 4.19226
3 1 1 37.2707 26.934 4.50054
11784 590 1 -42.6549 67.8252 3.49507
6696 335 3 17.8106 -33.0807 3.50511
11785 590 1 -42.9237 67.8547 4.37885
6698 335 3 18.156 -31.6936 4.17856
6693 335 3 19.1053 -33.25 4.51972
755 38 1 -60.4119 27.3029 3.7264
6697 335 3 18.3847 -32.5931 4.00627
6699 335 3 19.0456 -32.0265 4.38326
3472 174 1 61.2884 69.9283 4.2916
8039 402 3 62.0771 -30.0524 3.56812
20 1 1 43.009 29.2828 3.82893
2980 149 1 1.69876 29.0064 4.72558
16824 842 3 -37.1824 49.0727 4.90814
16828 842 3 -35.0962 48.988 4.7935
12698 635 1 44.0535 29.9502 3.47301
16823 842 3 -36.3809 48.7838 4.54176
12699 635 1 44.0286 29.8613 4.41248
16830 842 3 -34.6003 48.9617 3.87082
16829 842 3 -34.1923 49.2555 4.65629
16831 842 3 -33.9473 49.3793 3.33627
16832 842 3 -33.3156 49.0039 3.85636
16833 842 3 -32.5022 48.8783 3.50432
16834 842 3 -32.3982 49.641 4.0282
16838 842 3 -31.1078 49.1707 3.62606
16835 842 3 -31.5494 49.8151 4.27911
5222 262 3 49.616 8.71895 4.97973
5221 262 3 49.9827 9.54597 4.99833
3606 181 1 50.0293 28.4346 3.8885
3605 181 1 50.031 29.3637 3.73786
10476 524 1 -8.44109 9.26242 3.85435
8677 434 1 -29.2775 29.9701 4.43222
10477 524 1 -7.77971 9.83707 4.01239
10478 524 1 -7.32319 9.05791 3.95836
10479 524 1 -6.45865 9.32238 4.06003
10480 524 1 -6.08088 8.58468 4.49029
13826 692 3 54.5583 29.9026 3.72207
13825 692 3 54.3513 29.8975 4.62305
11786 590 1 -43.4428 68.5875 4.26933
13821 692 3 55.4646 29.5343 4.95849
13832 692 3 57.0315 29.265 3.78023
11791 590 1 -41.0152 69.3485 4.34296
11792 590 1 -40.3342 69.8616 4.71503
11790 590 1 -41.3469 68.7368 4.94365
6700 335 3 19.7797 -31.6547 4.75965
3470 174 1 60.4869 70.9125 3.96219
3471 174 1 61.0142 70.3128 3.50045
3473 174 1 61.5618 70.6177 4.80787
5292 265 3 -57.0152 51.2061 4.84574
12700 635 1 43.2831 30.1032 4.90878
3474 174 1 61.9184 71.4453 4.54326
5290 265 3 -55.3423 51.2625 4.6621
12693 635 1 45.3485 30.7249 3.90689
12692 635 1 46.0798 30.3569 3.47052
12691 635 1 46.5826 30.3071 4.22919
12689 635 1 46.3421 31.2887 4.06162
12687 635 1 46.0961 30.9276 4.9607
12690 635 1 47.106 30.9028 3.76018
3604 181 1 49.6373 30.1193 4.11336
16836 842 3 -31.4299 50.0286 3.39403
3603 181 1 48.9957 30.8094 4.0393
3602 181 1 49.0777 31.0467 4.92917
8675 434 1 -29.6674 30.899 3.37281
4972 249 3 51.3737 -49.2784 3.59533
8676 434 1 -29.5233 30.8581 4.33997
4971 249 3 51.8286 -48.4763 3.52288
6941 348 3 -7.53273 11.1345 4.81205
6942 348 3 -8.24693 10.5512 4.86743
13827 692 3 54.442 30.8036 3.82038
13828 692 3 54.3812 31.2208 4.68984
13722 687 3 -26.4974 31.3944 3.37473
13831 692 3 56.655 30.061 4.07594
13830 692 3 55.7109 30.2497 4.19355
2858 143 1 -3.84519 -8.99064 3.47019
2859 143 1 -4.74651 -8.86208 3.34583
13829 692 3 55.2687 30.9393 4.62428
16292 815 3 37.3625 51.5513 4.98847
16293 815 3 36.8576 50.9822 4.39358
16294 815 3 37.0023 51.5542 3.66331
16291 815 3 37.7113 50.7081 4.8701
3469 174 1 59.6061 71.2297 3.97626
16290 815 3 38.5399 50.2778 4.9502
3468 174 1 58.7368 71.228 4.34077
6883 345 3 0.572716 32.9689 3.49445
6882 345 3 0.937929 32.4015 4.11848
6881 345 3 1.01337 31.823 4.82224
6887 345 3 0.0215187 31.9618 4.73226
6886 345 3 0.142772 32.8636 4.58922
5295 265 3 -57.3724 52.6183 4.41637
3475 174 1 61.9458 72.0309 3.87049
3476 174 1 61.7309 72.9026 3.70508
2842 143 1 4.19811 -6.78199 3.79936
5289 265 3 -55.5821 52.0472 4.30704
5293 265 3 -56.5985 51.8202 4.34145
5294 265 3 -56.484 52.6754 4.61368
12688 635 1 45.9023 31.7992 4.69029
3060 153 1 -14.5151 -48.2327 3.76075
5288 265 3 -54.8294 52.5265 4.61412
5287 265 3 -54.3178 52.8577 3.97682
5286 265 3 -53.8563 52.8388 4.75038
5282 265 3 -51.9347 51.7997 4.04549
5283 265 3 -52.747 51.7231 4.54625
5281 265 3 -52.6051 51.8708 3.45877
5285 265 3 -52.9599 52.7216 4.63083
8673 434 1 -30.5303 31.7341 3.525
8671 434 1 -31.3488 32.7309 3.68659
8672 434 1 -30.4444 32.5141 3.93079
16678 834 3 49.3258 33.2823 4.5354
16680 834 3 48.7242 32.5414 4.94398
4966 249 3 49.8443 -48.3092 4.50018
4967 249 3 50.5398 -48.0611 3.86307
3713 186 1 50.888 13.1109 4.15993
3712 186 1 51.5126 12.4007 4.23854
5781 290 3 32.0283 -7.03627 3.34347
13721 687 3 -27.2056 31.6734 3.92218
13730 687 3 -27.8197 32.8179 4.90843
13723 687 3 -26.6385 32.3422 3.34366
13725 687 3 -25.6591 32.0062 3.5326
13727 687 3 -25.7012 33.205 4.67574
13726 687 3 -25.2626 32.6258 4.11131
3704 186 1 53.6738 12.1769 4.78075
4165 209 1 56.5503 -27.8956 4.48551
16164 809 3 -23.3536 -26.9507 4.14451
16165 809 3 -24.2273 -26.9867 4.35963
4164 209 1 55.7076 -28.1628 4.16547
16162 809 3 -24.5718 -27.0499 3.36501
3467 174 1 57.9905 71.7753 4.06729
14712 736 3 17.6672 -6.74738 4.49111
6885 345 3 -0.60779 33.3226 4.30511
6888 345 3 -0.854652 32.2545 4.57283
6889 345 3 -1.06179 32.3869 3.68747
3477 174 1 61.6359 73.8355 3.90347
3478 174 1 61.0576 73.4526 4.50948
5296 265 3 -57.3438 53.412 3.8773
3479 174 1 61.7449 73.881 4.96762
13381 670 3 42.8137 73.6486 4.83684
13385 670 3 42.5752 74.7674 4.96282
2841 143 1 3.59296 -6.13575 3.54304
12105 606 1 24.2415 -25.1608 4.6357
13382 670 3 43.5791 74.137 4.96034
2711 136 1 -34.1286 13.9903 4.23403
2712 136 1 -33.6701 14.3223 3.49765
2710 136 1 -33.9351 14.8569 4.43987
4281 215 1 47.4585 -5.81825 4.72045
2714 136 1 -32.4061 14.0329 3.44124
2713 136 1 -33.158 13.6079 3.81435
16679 834 3 48.4768 33.3868 4.70781
8667 434 1 -30.7527 34.4006 3.6654
8668 434 1 -31.5216 34.0446 3.95709
16677 834 3 49.8003 33.4291 3.73756
3714 186 1 50.8912 13.5889 3.35435
16663 834 3 50.3432 34.5817 3.49511
16662 834 3 50.4664 34.7311 4.38931
5784 290 3 31.4655 -5.99627 4.70543
4142 208 1 -6.8475 -86.3055 3.63024
4146 208 1 -8.31506 -85.2718 3.59498
5783 290 3 31.9516 -6.29459 3.95959
4141 208 1 -5.94458 -86.06 3.80234
13728 687 3 -26.5389 33.5801 4.63601
7959 398 3 -6.07048 34.6503 4.68227
7960 398 3 -5.19882 34.7276 4.33523
16161 809 3 -24.8705 -26.3868 3.88915
16163 809 3 -23.7741 -26.6237 3.3713
4201 211 1 -4.48527 -26.1121 4.91945
4202 211 1 -3.84005 -25.9042 4.31821
1168 59 1 57.235 -26.1021 3.3499
4203 211 1 -2.96192 -25.5518 4.19494
14713 736 3 17.9447 -5.8729 4.51083
6884 345 3 -0.236098 33.3847 3.45943
4231 212 1 19.6277 34.8596 3.95748
4230 212 1 18.9892 34.2265 3.76218
4229 212 1 19.1603 34.2004 4.68438
13399 670 3 40.8884 75.4243 3.74943
13392 670 3 41.0903 75.5201 4.71449
13395 670 3 40.1243 76.5042 3.53059
13394 670 3 40.3613 76.5086 4.4357
13393 670 3 40.1944 75.6087 4.55095
13400 670 3 41.6769 75.0047 4.02726
12108 606 1 23.0478 -24.2407 3.9053
12107 606 1 23.749 -23.7727 4.24698
12106 606 1 24.0278 -24.328 4.84413
16989 850 3 24.778 75.9741 4.00113
16991 850 3 25.0954 75.4976 4.93864
16990 850 3 25.1323 75.0959 4.0926
2707 136 1 -33.7649 15.725 3.51623
2706 136 1 -33.8559 16.1624 4.30088
2709 136 1 -33.1326 15.2786 4.43966
2708 136 1 -33.0195 15.2115 3.54383
8664 434 1 -31.9196 35.2096 4.8636
8663 434 1 -31.9797 36.11 4.57907
8665 434 1 -31.3015 35.2434 4.20653
8269 414 3 69.0718 -3.74038 4.49615
8270 414 3 68.8748 -3.6357 3.60869
8666 434 1 -30.379 35.1777 3.97003
4147 208 1 -8.83057 -84.5326 3.9983
4881 245 3 70.9738 -4.56175 4.96933
4882 245 3 70.1965 -4.10092 4.84078
4883 245 3 70.9326 -3.47793 4.88386
1678 84 1 -9.19435 16.2417 3.7501
7957 398 3 -6.97765 35.0837 4.02902
7958 398 3 -6.75784 35.2519 4.86977
4148 208 1 -7.99522 -84.5933 4.2588
4149 208 1 -7.50139 -83.8399 4.18247
4150 208 1 -6.7305 -83.3713 3.92845
4884 245 3 71.8363 -3.5412 4.94426
7956 398 3 -6.15922 35.0085 3.53271
7955 398 3 -6.12648 35.7555 4.03141
29 2 1 -65.3029 -23.4936 3.59383
12023 602 1 -25.03 -4.04204 4.68613
7951 398 3 -4.41809 35.2292 3.34004