ITEM: TIMESTEP
22000000
ITEM: NUMBER OF ATOMS
17280
ITEM: BOX BOUNDS pp pp pp
0.0000000000000000e+00 2.0000000000000000e+01
0.0000000000000000e+00 2.0000000000000000e+01
0.0000000000000000e+00 1.2000000000000000e+02
ITEM: ATOMS id mol type xu yu zu
13820 691 4 20.7098 20.2176 2.99396
13815 691 4 22.2851 20.2509 3.31572
13816 691 4 21.7219 20.1852 2.56197
253 13 2 28.0177 -58.4804 3.01349
252 13 2 28.2259 -59.15 2.40946
251 13 2 28.898 -59.4013 2.91874
250 13 2 29.1059 -58.56 2.55603
17112 856 4 -49.2992 40.3025 2.96007
17113 856 4 -49.1035 41.1233 3.269
17111 856 4 -48.4421 40.039 3.16383
241 13 2 31.5388 -59.782 2.07133
242 13 2 31.3994 -58.8801 2.22143
14220 711 4 -26.7869 61.2593 2.28041
243 13 2 31.928 -59.0258 3.03547
14219 711 4 -26.6605 60.8517 3.12907
7420 371 4 16.1736 -59.687 3.11355
2608 131 2 39.6993 1.20058 3.22836
7264 364 4 -38.7425 22.4196 3.15524
7265 364 4 -38.9117 23.3077 3.21236
2607 131 2 40.0449 2.04269 2.92753
7574 379 4 -51.1198 -16.7137 3.01627
249 13 2 29.7834 -58.3073 3.07862
7575 379 4 -51.2309 -17.6275 3.09865
17119 856 4 -50.0618 42.9627 2.65936
17120 856 4 -49.6636 42.4724 3.32344
17117 856 4 -48.3534 43.2718 2.93844
17118 856 4 -49.1554 42.837 2.61894
17115 856 4 -47.9851 41.9992 3.09827
17116 856 4 -47.5888 42.7788 2.78944
14214 711 4 -25.7401 62.8388 3.0708
14218 711 4 -26.586 61.7737 3.29309
2610 131 2 38.0762 1.8929 3.31489
2609 131 2 38.961 1.78578 3.04963
7570 379 4 -50.6299 -15.2894 3.16331
162 9 2 31.218 4.17923 2.72158
161 9 2 30.2881 4.11691 2.87191
168 9 2 32.8337 3.76934 3.14444
180 9 2 35.3822 3.99253 2.87223
179 9 2 35.5016 4.25859 1.96855
178 9 2 35.8403 4.93572 2.53162
177 9 2 35.0945 4.99146 3.04944
9080 454 2 -3.03794 24.8759 3.20951
2613 131 2 39.1598 3.55575 3.31153
7569 379 4 -49.8799 -14.8496 3.31527
7568 379 4 -49.2027 -14.8114 2.68551
7567 379 4 -49.1694 -14.1692 3.3225
176 9 2 34.2446 5.3722 3.05614
5961 299 4 -23.6868 -13.9697 2.87127
5962 299 4 -24.5587 -13.7245 2.57309
4897 245 4 -10.2867 -32.772 3.11462
7562 379 4 -49.2112 -13.2095 2.77572
4898 245 4 -9.8751 -31.9492 3.32387
7561 379 4 -48.5926 -12.5879 2.61544
5963 299 4 -24.7643 -12.8529 2.7347
8937 447 2 -16.3949 28.8037 3.00502
14359 718 4 -35.3518 -11.3384 2.72681
14358 718 4 -34.8168 -10.6167 2.99175
14360 718 4 -34.5563 -11.6283 3.02627
4890 245 4 -10.4196 -29.0997 3.30372
232 12 2 -31.6776 51.9994 3.31632
1612 81 2 -64.2975 -7.00235 2.96487
1613 81 2 -63.6161 -7.63344 3.06676
1615 81 2 -62.3194 -7.45028 2.52169
1614 81 2 -62.8427 -8.10137 2.82171
1616 81 2 -61.5035 -7.01556 2.54465
16467 824 4 18.8358 32.0641 3.04982
16468 824 4 19.7127 32.1824 3.1979
14349 718 4 -36.9628 -6.38618 2.90509
14348 718 4 -36.2237 -5.89364 3.28357
14347 718 4 -35.4017 -5.51332 3.19567
14345 718 4 -34.4307 -5.29068 2.99174
14346 718 4 -34.7631 -6.1514 2.91263
11065 554 2 8.03339 33.4962 2.84668
11064 554 2 8.17852 34.4478 2.92825
16811 841 4 69.9669 -5.39308 2.5886
16812 841 4 69.3129 -5.37147 3.22933
16810 841 4 70.6056 -5.77008 3.11915
1611 81 2 -65.0322 -6.39981 2.96759
1610 81 2 -65.8568 -6.21812 3.30665
8496 425 4 17.5319 13.6621 2.69435
8494 425 4 18.1968 14.9184 3.01163
8497 425 4 16.7063 13.4052 3.02635
8495 425 4 18.3419 14.0668 2.60149
8493 425 4 19.131 14.999 3.10722
8492 425 4 19.7819 14.3941 2.81499
11843 593 2 -38.4891 -4.52765 3.23932
11842 593 2 -39.3819 -4.63946 3.03026
3721 187 2 3.6274 -4.14646 2.51648
3722 187 2 4.51802 -3.8651 2.62543
3723 187 2 4.96209 -3.46005 3.31373
17084 855 4 6.52506 -3.79537 2.55084
17082 855 4 7.5475 -4.51685 2.71054
17081 855 4 8.15871 -3.79045 2.86392
17086 855 4 6.9544 -3.39814 3.30511
17083 855 4 6.70727 -4.72695 2.39591
12686 635 2 9.15162 35.7641 3.21725
14902 746 4 -8.8082 16.5455 2.77857
14903 746 4 -8.91288 15.7984 3.29613
11841 593 2 -40.048 -3.98733 3.05801
3737 187 2 4.53283 -2.74605 2.46053
3736 187 2 4.48489 -1.93306 2.96444
3738 187 2 5.3162 -2.42748 2.85704
3740 187 2 6.1 -1.85581 2.61603
17085 855 4 6.06115 -3.20094 3.02852
13981 700 4 -11.5027 -62.0907 3.20261
17103 856 4 -47.2063 37.9787 2.88021
17102 856 4 -46.7348 38.1171 2.07716
11858 593 2 -42.5677 -2.71643 3.10709
11857 593 2 -41.7244 -2.4026 3.31439
13819 691 4 20.3729 19.3603 3.24096
13817 691 4 21.6503 19.3076 2.37183
13818 691 4 20.9065 18.8875 2.63933
4501 226 4 46.9166 59.6191 3.0477
4502 226 4 47.7618 59.9353 3.02249
12681 635 2 7.3544 38.497 3.11784
8952 448 2 9.7764 19.9504 3.32513
4100 205 2 -27.3507 -0.204879 2.7745
17110 856 4 -48.1791 39.3295 2.64077
17101 856 4 -46.5516 38.7481 2.70652
7407 371 4 17.9997 -60.7386 2.46044
7406 371 4 17.6627 -60.0685 2.9566
7409 371 4 17.6213 -61.4052 3.10691
7408 371 4 18.4909 -61.4058 2.86681
2601 131 2 40.4106 0.768578 4.95562
2605 131 2 40.3093 0.910932 4.02441
2606 131 2 40.6068 1.59728 3.51387
13814 691 4 22.9418 20.3923 3.9612
3844 193 2 42.7921 -18.6162 4.76238
4504 226 4 46.8202 60.264 4.14531
4505 226 4 46.9347 60.6872 4.91838
4503 226 4 47.6835 60.1081 3.92409
7579 379 4 -52.4059 -18.974 3.97792
7577 379 4 -50.8411 -18.5314 4.47005
7578 379 4 -51.4622 -18.9983 3.95292
8951 448 2 9.15316 20.1412 3.96872
247 13 2 30.0052 -59.4399 4.02384
246 13 2 30.8677 -59.439 4.29896
248 13 2 30.1904 -58.5805 3.84453
245 13 2 31.7798 -59.2748 4.30962
244 13 2 32.4741 -59.0919 3.72893
6352 318 4 -27.1684 -38.4855 4.77342
6351 318 4 -26.8555 -39.3376 4.56717
6349 318 4 -25.7552 -39.733 4.33304
14216 711 4 -25.6501 61.1444 3.7022
7418 371 4 15.3606 -59.4401 4.02022
7419 371 4 16.2398 -59.1227 3.83853
7402 371 4 17.2237 -59.2387 4.27974
7403 371 4 18.1261 -59.2568 4.28451
2604 131 2 39.7271 0.237925 3.69375
7404 371 4 18.6478 -59.169 3.41818
2602 131 2 39.5116 0.97788 4.95467
2603 131 2 39.0491 0.39281 4.37877
7266 364 4 -39.7089 22.9618 3.46598
7263 364 4 -38.4409 22.1047 3.97289
7262 364 4 -39.1994 22.502 4.26076
7261 364 4 -39.8665 21.9168 4.64903
3846 193 2 43.0242 -17.5642 3.35019
3848 193 2 41.7747 -16.9226 4.17747
3847 193 2 42.3349 -16.9373 3.44182
3845 193 2 42.8972 -18.0824 4.04878
7095 355 4 2.79749 -17.0352 4.49289
7084 355 4 5.67018 -17.3659 4.52231
254 13 2 27.5299 -57.7544 3.4096
7580 379 4 -52.8304 -18.2026 4.31328
255 13 2 28.2811 -58.0677 3.89989
256 13 2 27.9881 -57.2165 4.12477
257 13 2 28.2618 -57.6946 4.90243
7576 379 4 -50.7602 -17.8455 3.83581
258 13 2 28.9356 -57.0816 4.74639
259 13 2 29.4093 -56.7468 3.9958
17114 856 4 -48.8178 41.9779 3.47731
6355 318 4 -28.8453 -38.2856 4.7396
3081 155 2 -28.7688 42.7689 4.34249
3082 155 2 -28.0179 42.2678 4.28399
3083 155 2 -27.4766 42.5001 4.99193
167 9 2 33.1421 2.96632 3.56286
166 9 2 32.3642 3.26026 3.93858
3084 155 2 -26.5737 42.5097 4.82175
14217 711 4 -26.2555 61.7333 4.13445
14215 711 4 -25.5562 61.9972 3.35465
3085 155 2 -25.7325 42.4829 4.47238
3086 155 2 -25.0099 41.9755 4.5362
14213 711 4 -25.2428 63.2246 3.68061
3088 155 2 -23.8253 41.7975 4.6578
3094 155 2 -23.8126 43.2305 4.54545
7401 371 4 17.2846 -58.3201 3.96033
3091 155 2 -22.1087 42.3352 4.95627
3092 155 2 -22.9843 42.5331 4.87633
3093 155 2 -23.2922 42.6923 4.03738
2611 131 2 38.3529 2.69607 3.52198
2612 131 2 39.2819 2.77522 3.79274
2619 131 2 39.794 3.1823 4.83678
14309 716 4 -41.5363 21.6706 4.26471
14308 716 4 -40.6168 21.8051 4.09654
14307 716 4 -40.8891 22.2356 4.86238
7267 364 4 -39.8874 23.7907 3.84528
7268 364 4 -39.3694 24.5188 3.61567
7269 364 4 -39.3626 24.7265 4.52362
2618 131 2 40.632 3.62053 4.93359
3849 193 2 41.4877 -16.0762 4.29512
7097 355 4 3.00087 -16.1134 4.05254
3850 193 2 42.2025 -16.1738 4.80549
7098 355 4 2.65891 -15.3228 3.67949
3859 193 2 44.769 -16.4325 4.26164
7096 355 4 3.59802 -16.5864 4.5694
3858 193 2 44.1935 -15.9362 3.73979
3857 193 2 44.5093 -15.4519 4.50093
7100 355 4 3.47536 -15.272 4.43605
3860 193 2 45.2376 -16.0892 3.5752
7083 355 4 5.7308 -16.4689 4.69888
7082 355 4 5.5003 -15.5458 4.63306
7572 379 4 -51.9694 -15.4691 3.96412
6859 343 4 -12.5197 3.69193 4.97611
7573 379 4 -51.506 -16.2026 3.65579
2560 128 2 -30.8951 -55.1188 4.58237
260 13 2 29.7412 -55.8856 4.14479
7566 379 4 -48.8974 -15.0223 3.73607
165 9 2 31.5891 3.60646 4.16205
6341 318 4 -29.6578 -36.5711 4.66162
5682 285 4 -29.935 -55.2985 4.99141
170 9 2 33.1526 3.86759 4.23944
173 9 2 32.8716 4.83008 4.15756
164 9 2 31.916 4.4587 4.32366
163 9 2 31.8439 4.28936 3.40746
169 9 2 33.6134 4.09622 3.43698
171 9 2 33.7117 4.54822 4.5888
14212 711 4 -25.6986 63.6445 4.40078
14211 711 4 -25.1519 64.2661 4.03148
14210 711 4 -24.3131 64.5206 3.77597
3095 155 2 -24.6742 43.5766 4.79004
14209 711 4 -23.721 64.1897 4.41153
14201 711 4 -22.1566 63.8444 3.70716
14202 711 4 -22.8053 63.6432 4.33285
14203 711 4 -22.1168 63.5335 4.91651
9078 454 2 -2.83266 24.8201 4.2517
2615 131 2 39.5412 4.15796 4.80789
14301 716 4 -41.3815 24.6903 4.49282
2614 131 2 39.0439 3.7106 4.2069
7099 355 4 2.86636 -14.6135 4.17656
3853 193 2 42.2873 -13.8105 4.67334
1921 97 2 45.1543 46.2712 4.3949
7081 355 4 6.15087 -14.8749 4.55911
2559 128 2 -31.77 -54.8294 4.71041
2555 128 2 -32.2341 -53.5994 4.93988
7571 379 4 -51.3285 -14.926 3.66691
2094 105 2 8.75743 6.56474 4.3785
2095 105 2 9.459 6.25872 4.93828
2093 105 2 9.24138 5.9027 3.94586
5681 285 4 -29.9347 -54.5297 4.45653
2092 105 2 10.0437 6.32003 3.67202
2091 105 2 10.3932 6.43013 4.55217
2090 105 2 11.244 6.10299 4.55669
7565 379 4 -48.0935 -14.6711 3.54822
7564 379 4 -48.0992 -13.7826 3.60821
174 9 2 32.9864 5.56646 3.66515
13949 698 4 -46.6799 -14.3078 4.75391
175 9 2 33.8325 5.9378 3.64757
5965 299 4 -25.0858 -13.8762 4.18217
13946 698 4 -45.2503 -14.9175 4.75745
9079 454 2 -3.55324 25.3196 3.86836
5966 299 4 -24.4395 -14.5296 4.30949
5967 299 4 -24.0622 -13.62 4.06414
9076 454 2 -2.45915 25.9428 4.37694
9075 454 2 -3.28004 25.8111 4.79713
9077 454 2 -2.42286 25.2521 4.94955
14302 716 4 -40.6412 25.2297 4.62426
8927 447 2 -20.4707 26.6036 4.75526
7280 364 4 -38.696 27.9308 4.85732
8928 447 2 -19.8722 27.239 4.69946
8929 447 2 -19.8741 28.1411 4.46397
8932 447 2 -17.9372 28.3237 3.8685
6016 301 4 43.1221 47.8341 4.5007
1922 97 2 44.6858 47.0938 4.33553
1923 97 2 44.514 47.7675 4.97907
8939 447 2 -15.3124 28.2962 3.78439
6015 301 4 43.3405 46.9483 4.19183
6014 301 4 43.8924 46.6847 4.88298
5698 285 4 -34.2955 -52.6222 4.80123
4894 245 4 -11.5919 -31.7611 4.03099
4895 245 4 -11.177 -32.272 4.63042
4896 245 4 -10.8541 -32.4224 3.75297
7563 379 4 -48.7891 -13.2119 3.5919
4899 245 4 -9.03487 -32.1093 3.61801
4900 245 4 -8.78308 -32.6652 4.3665
2098 105 2 10.2774 8.2077 4.36033
2097 105 2 10.0756 7.46488 4.83732
9061 454 2 -6.81511 27.9898 3.76731
13951 698 4 -47.8643 -13.092 4.97912
2081 105 2 12.806 6.67508 4.20211
12260 613 2 -7.77887 27.5973 4.02508
2083 105 2 13.1799 7.34189 4.84352
4580 229 4 -45.3415 6.96739 4.92302
5964 299 4 -25.0457 -13.2396 3.52686
2082 105 2 13.6556 6.71498 4.44111
5968 299 4 -23.8468 -12.9007 4.60332
8931 447 2 -18.4944 28.9399 4.25244
8930 447 2 -19.3321 28.7835 4.0062
13384 670 4 -79.0046 9.41419 4.98151
8933 447 2 -17.5322 29.1509 4.01701
8934 447 2 -16.789 29.595 4.28236
8936 447 2 -16.015 29.3734 3.66394
8935 447 2 -15.9586 29.6832 4.5917
8940 447 2 -15.198 28.8951 4.44999
8938 447 2 -16.2163 28.3597 3.73797
6017 301 4 43.5706 48.5687 4.82044
5700 285 4 -34.4436 -51.6103 4.70086
227 12 2 -33.3814 48.7148 4.98862
228 12 2 -33.0355 49.5528 4.91178
226 12 2 -32.4633 48.659 4.89421
4893 245 4 -10.9695 -31.3075 3.47339
4892 245 4 -11.4047 -30.5463 3.85746
2099 105 2 10.2165 8.99638 3.88139
2100 105 2 10.5435 9.86018 3.87151
12258 613 2 -8.86384 28.4196 4.73561
5264 264 4 30.2031 29.8473 4.92704
9062 454 2 -6.98844 28.4313 4.54744
4885 245 4 -7.23 -30.5877 4.15453
4886 245 4 -7.94698 -30.3327 3.59894
12259 613 2 -8.03994 28.4715 4.22785
16462 824 4 17.2748 29.9696 4.75232
16461 824 4 17.7074 29.1881 4.98252
9225 462 2 18.8532 9.19455 4.66917
9224 462 2 19.4129 9.82709 4.32093
13387 670 4 -77.1543 10.5778 4.88434
14357 718 4 -35.0682 -9.79633 3.36557
14356 718 4 -35.78 -9.38807 3.83733
12276 614 2 4.34621 -8.78928 4.65419
12277 614 2 3.47145 -8.63894 4.34398
14355 718 4 -35.7962 -8.57971 3.41781
13398 670 4 -74.4273 11.2884 4.33936
13399 670 4 -73.6971 11.214 3.80379
229 12 2 -33.162 50.0058 4.10424
231 12 2 -32.1649 51.3174 3.60754
230 12 2 -32.7323 50.8396 4.16424
4891 245 4 -10.9214 -29.8258 3.54784
5266 264 4 28.8195 30.8605 4.84353
4888 245 4 -9.061 -29.2575 4.20195
4889 245 4 -9.68064 -28.774 3.72842
4887 245 4 -8.30931 -29.8241 4.22572
4884 245 4 -7.25715 -29.8091 4.66112
10012 501 2 -25.2699 11.3062 4.52753
10013 501 2 -26.1567 11.4858 4.59959
10009 501 2 -23.7516 11.5435 3.51167
10010 501 2 -24.3969 11.0524 3.9146
10011 501 2 -24.3926 11.1923 4.82414
16463 824 4 18.1248 30.0869 4.3315
8500 425 4 17.1246 11.5193 4.78156
16465 824 4 18.7527 31.5712 4.08655
16464 824 4 18.8373 30.6898 4.40696
9223 462 2 19.6865 10.4858 4.86007
2626 132 2 1.37656 53.0813 4.145
16470 824 4 20.2937 32.1346 4.80586
2627 132 2 0.511031 52.9958 4.41188
16471 824 4 21.1848 32.1174 4.93431
12279 614 2 1.91998 -7.80533 3.78236
12278 614 2 2.64971 -8.11086 4.29009
12280 614 2 2.47217 -7.10942 3.36063
2623 132 2 2.39656 52.9645 4.40436
2622 132 2 3.27144 53.2146 4.56022
14353 718 4 -35.2947 -7.43951 4.16313
14351 718 4 -36.5 -7.64548 3.87466
14350 718 4 -36.3885 -6.78126 3.58805
14354 718 4 -35.0764 -7.99775 3.47883
14352 718 4 -36.0428 -7.44569 4.67464
13397 670 4 -74.3678 12.1731 4.50288
13400 670 4 -73.2084 11.6988 4.42004
234 12 2 -32.1044 52.0512 4.20987
236 12 2 -32.6306 52.8396 4.33385
11067 554 2 9.23218 33.0744 4.09026
11066 554 2 8.46459 33.2535 3.62453
233 12 2 -31.2035 51.9884 4.08353
1583 80 2 49.874 12.3348 4.29766
1584 80 2 49.4026 11.9792 4.95955
1582 80 2 50.6964 12.2301 3.79619
1581 80 2 51.2446 12.9384 3.96457
16805 841 4 71.374 -8.04851 4.58084
16807 841 4 70.3976 -6.81076 4.65472
16806 841 4 70.7408 -7.52847 4.98822
16804 841 4 72.1462 -7.66587 4.88391
16803 841 4 72.3153 -7.45306 4.04603
10014 501 2 -25.7739 12.4126 4.42025
14327 717 4 15.1019 32.8574 4.08864
10008 501 2 -23.9333 12.0267 4.26347
10007 501 2 -23.5691 12.7825 4.52123
1617 81 2 -61.7967 -6.92047 3.39417
8499 425 4 17.1327 11.981 3.96811
16466 824 4 18.0924 32.0789 3.64057
8498 425 4 17.1939 12.8114 3.58655
8738 437 2 17.7663 13.3155 4.4187
1620 81 2 -61.0728 -7.17135 4.03293
16469 824 4 19.8708 31.8336 4.05094
2628 132 2 -0.258245 52.9612 4.89548
2625 132 2 1.11696 53.9407 4.45538
11844 593 2 -38.4501 -5.307 3.72363
8491 425 4 20.2762 14.2062 3.58038
2624 132 2 2.08636 53.7946 4.57318
9372 469 2 -77.0701 54.8786 3.71141
9370 469 2 -77.1812 54.3436 4.77675
240 12 2 -35.4691 53.8603 4.03771
239 12 2 -35.0169 53.5519 4.73668
2621 132 2 3.87569 53.8264 4.79368
9371 469 2 -76.4588 54.4373 4.21179
14343 718 4 -33.3386 -5.51481 3.93006
14344 718 4 -34.1823 -5.16199 3.84475
14342 718 4 -33.3848 -6.27517 3.4546
238 12 2 -34.2205 53.5559 4.25781
237 12 2 -33.3498 53.3916 4.52742
16820 841 4 66.6456 -5.64012 4.97555
11063 554 2 7.48003 34.7574 3.44382
14341 718 4 -32.5568 -6.29937 3.784
11069 554 2 8.32808 33.5137 4.58055
11070 554 2 7.51936 33.7771 4.97434
16814 841 4 68.2122 -5.46329 4.52144
16813 841 4 68.801 -5.72653 3.89747
11068 554 2 9.22534 33.4243 4.95746
16808 841 4 69.977 -6.19569 4.10493
12688 635 2 9.90782 34.8034 4.23436
12689 635 2 9.32553 34.8495 4.9434
16801 841 4 71.6589 -6.2514 4.49226
16809 841 4 70.4861 -6.615 3.39602
12698 635 2 10.5638 34.9482 4.91455
16802 841 4 72.351 -6.53893 3.90995
1607 81 2 -66.7726 -6.64702 4.57141
14905 746 4 -7.88071 14.5882 4.27393
1608 81 2 -66.7101 -5.70501 4.62305
14324 717 4 14.5394 34.5242 4.17636
14325 717 4 14.3318 33.7191 4.67859
1609 81 2 -66.4867 -5.69195 3.7136
14328 717 4 15.478 33.69 3.91529
14329 717 4 15.8077 34.4654 4.32044
14330 717 4 16.3927 34.0216 4.88214
14331 717 4 17.3251 34.1655 4.9085
8740 437 2 18.1956 14.6654 4.09148
8739 437 2 17.5 14.0345 3.89074
1618 81 2 -61.2939 -6.18387 3.70869
1619 81 2 -60.5063 -6.48406 4.03364
8489 425 4 18.926 14.1807 4.61502
8490 425 4 19.6037 14.5515 4.09736
11846 593 2 -38.8728 -4.59396 4.51734
15645 783 4 0.0705212 15.512 3.98904
15644 783 4 0.00050097 16.4095 4.14041
17098 855 4 2.39731 -3.53164 3.33796
17099 855 4 1.76459 -3.80255 3.96024
17097 855 4 3.2444 -3.73943 3.59226
11845 593 2 -37.9929 -4.77762 4.31512
9375 469 2 -77.7659 56.0802 4.97231
17096 855 4 3.7553 -4.49161 3.45012
13808 691 4 24.1941 16.6482 4.75863
17093 855 4 4.36242 -4.32047 4.93312
17095 855 4 4.66536 -4.53105 3.37138
17094 855 4 4.60382 -4.89434 4.24377
9373 469 2 -76.6227 55.4039 4.3631
11061 554 2 6.50194 35.5124 3.34632
3725 187 2 5.30602 -4.35968 4.61251
3724 187 2 5.50191 -3.86777 3.89671
17090 855 4 6.07013 -3.67793 4.72787
16818 841 4 66.5649 -4.68774 4.48886
11062 554 2 7.33965 35.6675 3.74596
17087 855 4 6.99471 -3.5363 4.23494
16816 841 4 67.935 -4.52941 4.58984
12684 635 2 7.99917 36.5696 4.21014
16815 841 4 68.3397 -4.88171 3.82553
12687 635 2 9.97721 35.4503 3.571
12685 635 2 8.84609 36.3658 3.88009
8960 448 2 11.2602 16.3002 4.39098
14904 746 4 -8.45931 15.1939 3.80973
8442 423 4 -47.8683 36.1816 3.9848
8441 423 4 -47.4083 35.3788 4.01904
8443 423 4 -46.984 36.4326 3.81456
3942 198 2 14.3499 -24.5119 4.38535
3941 198 2 14.0426 -24.0838 3.59874
3943 198 2 14.0439 -23.6633 4.66169
3944 198 2 13.5059 -24.3899 4.78815
10001 501 2 -24.2217 15.7254 4.13607
10003 501 2 -24.6711 15.2212 4.75966
11859 593 2 -42.7553 -3.48358 3.60655
15648 783 4 -1.8296 15.8137 4.45738
15649 783 4 -2.57896 15.4302 4.85428
15650 783 4 -3.33047 15.043 4.62903
11860 593 2 -42.9202 -4.37359 3.52218
15646 783 4 -0.793765 15.6804 4.23579
15647 783 4 -1.48924 15.8724 3.63469
11855 593 2 -41.1087 -3.37159 4.43162
17100 855 4 1.20519 -3.19205 4.30389
9378 469 2 -77.9728 58.2314 4.30436
9377 469 2 -77.572 57.7768 4.93395
9380 469 2 -76.4837 57.9231 3.69156
13807 691 4 24.8809 17.1888 4.93508
13809 691 4 23.634 17.4027 4.70675
3734 187 2 4.59654 -1.83654 4.71687
13810 691 4 23.4949 18.2884 4.71157
3739 187 2 6.07665 -2.29862 3.43945
13805 691 4 25.9547 17.4958 4.44967
13806 691 4 25.1327 17.283 4.06674
13804 691 4 25.6838 18.3215 4.84858
17088 855 4 6.85688 -2.93763 4.92984
12683 635 2 8.02989 37.4987 4.44776
12682 635 2 7.50234 37.9922 3.84068
8955 448 2 9.16536 18.0184 4.30734
8956 448 2 9.77673 17.3832 4.65786
14901 746 4 -9.34191 17.0065 3.39648
8959 448 2 11.5193 17.1778 4.13327
8957 448 2 10.694 17.2527 4.6833
8444 423 4 -47.145 37.0918 4.41275
17104 856 4 -47.5791 37.9661 3.68262
17105 856 4 -47.4805 38.3238 4.48345
8445 423 4 -46.457 37.1497 4.94681
3902 196 2 34.5783 17.9094 4.57675
7413 371 4 16.5796 -61.6821 4.78495
16661 834 4 -24.7972 16.8031 4.71812
7411 371 4 17.1754 -62.4486 4.44009
11200 560 2 18.2202 37.3118 4.67873
7410 371 4 17.6673 -61.9592 3.84775
11856 593 2 -41.6257 -3.22902 3.66823
15642 783 4 -0.798628 17.7204 4.22305
15643 783 4 -0.526581 17.0327 3.71979
14320 716 4 -39.0143 18.5952 4.72468
13813 691 4 23.0079 19.4607 4.06063
9379 469 2 -77.249 58.4424 3.70016
13812 691 4 23.8283 19.5984 3.71302
13811 691 4 23.9105 19.0813 4.52734
3735 187 2 4.53248 -1.65484 3.82883
8943 448 2 5.31227 19.6233 4.52054
8944 448 2 6.02358 19.1433 4.29406
13983 700 4 -11.7009 -61.104 4.37439
8945 448 2 6.73264 18.6769 4.01246
8946 448 2 7.33809 19.0079 4.69569
8954 448 2 9.92156 18.4937 4.09798
13982 700 4 -11.2184 -61.3278 3.5718
8950 448 2 9.23961 19.3862 4.48442
17108 856 4 -48.4522 39.0353 4.35326
17107 856 4 -48.6662 38.4211 4.93016
8953 448 2 10.0823 19.1153 3.48577
3957 198 2 10.6145 -20.5975 4.85012
4099 205 2 -27.2365 -0.303564 3.65922
17109 856 4 -48.1368 39.0303 3.51822
4098 205 2 -26.4963 -0.390075 4.247
4097 205 2 -25.9609 -0.905206 4.70427
3901 196 2 34.5322 18.5595 3.90693
7417 371 4 15.4658 -60.2593 4.36636
7416 371 4 15.5013 -61.0827 3.95797
7415 371 4 16.4047 -61.1769 4.05359
7414 371 4 15.9296 -61.041 4.82486
11191 560 2 16.4146 39.988 4.66139
11190 560 2 16.6948 39.8994 3.77479
11189 560 2 17.4455 39.4021 3.77922
11188 560 2 17.545 38.8569 4.48487
14312 716 4 -42.1773 19.8375 4.8866
7405 371 4 18.4548 -60.109 3.49604
11187 560 2 18.3822 38.8883 4.13563
11186 560 2 19.0837 38.9296 4.69548
14317 716 4 -39.4168 20.2051 6.39881
11578 579 2 1.45593 -38.4362 6.36919
5900 295 4 41.329 60.7966 5.68276
11577 579 2 0.587882 -38.7587 6.26899
5897 295 4 42.694 61.0956 5.84201
881 45 2 -77.7949 -39.3625 6.66548
5898 295 4 42.2848 60.5326 5.15029
5896 295 4 43.1701 60.6454 6.50127
3842 193 2 44.0629 -19.165 5.6422
3841 193 2 43.4929 -19.6172 5.0573
3843 193 2 43.5449 -18.4865 5.3383
8941 448 2 4.79772 20.0528 5.60398
5895 295 4 43.9766 60.1622 6.38951
4506 226 4 46.4598 60.1858 5.52441
10139 507 2 5.41173 0.21145 6.48809
4507 226 4 46.5212 60.7871 6.19482
10137 507 2 5.30964 1.4863 6.42684
4508 226 4 47.0694 60.0786 6.42913
10129 507 2 7.95459 1.38804 6.64726
4509 226 4 47.9961 60.0467 6.54158
4510 226 4 47.8153 60.5936 5.86073
2302 116 2 -10.1314 -39.5445 5.67187
4511 226 4 48.699 60.8224 5.63237
4512 226 4 49.0991 61.2182 6.30602
2303 116 2 -10.2037 -38.6709 5.32222
6356 318 4 -29.173 -38.961 5.25901
2301 116 2 -9.60933 -39.7796 6.33931
6357 318 4 -28.658 -39.4393 5.80584
2006 101 2 -49.0114 41.6292 6.0444
2007 101 2 -49.723 41.624 6.64456
3959 198 2 12.199 -19.9254 5.51443
6354 318 4 -28.0617 -38.6356 5.15513
6353 318 4 -27.3335 -39.0801 5.50945
5361 269 4 32.3625 20.8283 6.3766
5362 269 4 33.2679 20.9777 6.66238
6350 318 4 -26.311 -39.8323 5.06785
6348 318 4 -25.3267 -39.4412 5.09745
6347 318 4 -26.0657 -38.9834 5.39731
5502 276 4 15.5662 -19.2355 6.29258
5503 276 4 15.1341 -19.9273 5.83835
14311 716 4 -41.899 20.6121 5.31627
17050 853 4 -1.89753 41.546 6.3325
3090 155 2 -22.5731 41.5909 5.20259
14316 716 4 -40.1727 20.42 5.92818
14310 716 4 -41.411 21.4078 5.15044
14314 716 4 -41.6178 20.0627 6.19411
14315 716 4 -41.0378 20.761 5.98165
11576 579 2 -0.19483 -38.4425 6.60362
2620 131 2 40.4154 2.80378 5.42147
11580 579 2 1.53162 -37.1169 5.34197
11579 579 2 1.65037 -38.0074 5.56067
17043 853 4 0.989003 42.8445 6.54662
7093 355 4 3.18155 -17.4587 5.91216
7094 355 4 2.53664 -17.2898 5.30661
10136 507 2 4.63585 2.09219 6.59836
7092 355 4 4.08952 -17.2322 5.90818
7085 355 4 5.09539 -17.3836 5.25044
185 10 2 -13.5352 -57.1278 6.07341
182 10 2 -13.3842 -58.1037 6.33177
183 10 2 -12.5397 -57.8452 6.1039
184 10 2 -12.7428 -57.097 5.60817
2304 116 2 -10.2519 -37.7821 5.47456
2305 116 2 -10.2911 -36.8805 5.64032
4513 226 4 49.2624 62.1199 6.38746
2004 101 2 -49.173 43.0865 6.4369
2005 101 2 -49.1993 42.4836 5.70215
6343 318 4 -28.2455 -37.1602 5.50809
6345 318 4 -26.9673 -37.9594 5.97558
6344 318 4 -27.8543 -37.9558 5.87601
17059 853 4 -6.95709 43.3144 5.92865
6346 318 4 -26.1123 -38.1858 5.88012
17057 853 4 -5.56338 43.2332 5.45579
3087 155 2 -24.4681 41.8629 5.2943
17056 853 4 -4.70301 42.9928 5.73516
17054 853 4 -4.71206 41.7243 6.48589
17055 853 4 -4.2382 42.4923 6.34539
3089 155 2 -23.4394 41.8605 5.49819
17049 853 4 -2.43912 42.2506 6.02455
14205 711 4 -23.0936 63.092 5.78171
17048 853 4 -1.58233 42.546 6.13513
14306 716 4 -41.2285 23.0893 5.06677
17047 853 4 -0.701065 42.6595 6.45393
7270 364 4 -38.8003 24.467 5.2049
2617 131 2 40.3819 3.77451 5.8206
4783 240 4 41.6552 4.94743 6.19637
3851 193 2 42.32 -15.2953 5.02282
7272 364 4 -37.4893 23.5821 6.18531
7271 364 4 -38.1672 24.0124 5.7003
7273 364 4 -36.8108 24.1281 5.90495
3856 193 2 44.1351 -15.4532 5.37368
7091 355 4 4.36106 -16.3811 6.16242
7086 355 4 5.09783 -16.6021 5.66002
186 10 2 -13.7152 -56.3287 5.6005
7087 355 4 5.11583 -15.6678 5.56552
187 10 2 -13.505 -55.4269 5.44292
7088 355 4 5.46394 -15.9661 6.38059
6860 343 4 -11.7299 3.64598 5.48117
6857 343 4 -12.7786 3.92665 6.56488
6858 343 4 -12.4836 4.18311 5.79145
3360 168 2 47.2023 4.9679 6.42659
5689 285 4 -31.3886 -55.2955 5.7243
2308 116 2 -10.7085 -35.97 6.29786
6342 318 4 -28.9541 -36.5873 5.19185
2306 116 2 -9.68926 -36.217 5.84347
5683 285 4 -29.1342 -55.3171 5.42319
172 9 2 32.9352 4.74139 5.10534
14488 725 4 -27.1826 4.37882 6.12843
14487 725 4 -27.8939 3.93855 6.46044
3096 155 2 -25.2086 44.1691 5.29836
17058 853 4 -6.28178 43.7917 5.43121
3099 155 2 -25.9017 43.8587 6.43904
3098 155 2 -25.4464 44.6786 6.59004
13947 698 4 -45.8391 -15.1159 5.43314
14208 711 4 -23.3993 64.7532 5.10143
14207 711 4 -24.0341 64.7021 5.74925
3097 155 2 -24.8265 44.1116 6.15299
14206 711 4 -23.6274 63.873 5.68703
14204 711 4 -22.5925 63.8554 5.63937
11558 578 2 57.4984 24.9287 6.47892
11556 578 2 58.2886 24.1455 6.45963
2616 131 2 39.9419 4.51219 5.48476
14305 716 4 -41.2287 23.6605 5.77705
14304 716 4 -41.1383 24.5478 5.68417
17046 853 4 -0.499671 43.5849 6.65747
4781 240 4 40.4397 5.87153 6.41597
4782 240 4 40.9063 5.32976 5.8567
8926 447 2 -19.9109 26.1758 5.31165
4784 240 4 41.4743 5.74425 6.60451
8925 447 2 -19.1167 26.5235 5.70085
3852 193 2 41.8658 -14.4919 5.1471
3854 193 2 43.0574 -14.1372 5.11887
7274 364 4 -36.852 25.0141 6.11461
7277 364 4 -37.5766 26.154 6.05029
1927 97 2 43.311 46.5752 6.01273
3855 193 2 43.7898 -14.6568 5.20843
1928 97 2 44.1588 46.2303 6.12128
6013 301 4 44.7131 46.3938 5.33132
191 10 2 -15.3685 -54.9864 6.26915
188 10 2 -13.9115 -54.8428 6.04702
190 10 2 -14.8962 -54.2313 6.07897
189 10 2 -14.2286 -54.2366 5.43371
5696 285 4 -33.6541 -53.7285 6.18669
2556 128 2 -33.0211 -53.4792 5.47466
2558 128 2 -32.576 -54.9185 5.23548
2557 128 2 -33.011 -54.3612 5.75041
5691 285 4 -31.8642 -54.0296 5.95687
5690 285 4 -31.8268 -54.8153 6.42981
5692 285 4 -32.6019 -53.7038 6.35721
5687 285 4 -30.9675 -53.6601 6.11635
5685 285 4 -30.078 -54.1813 5.85184
5688 285 4 -30.9777 -54.478 5.62067
5686 285 4 -30.5575 -54.3493 6.59886
5684 285 4 -29.6232 -54.9085 6.18031
3344 168 2 50.3739 6.51605 6.46226
2089 105 2 10.8009 5.70372 5.23806
2088 105 2 11.3157 5.79152 6.02792
13950 698 4 -47.4422 -13.9274 5.08572
14489 725 4 -26.7861 5.17827 6.05347
2086 105 2 12.1402 6.58039 6.19642
2085 105 2 13.0164 6.32429 6.07257
13948 698 4 -45.9353 -14.2084 5.25362
13944 698 4 -45.1226 -14.1264 6.28789
9073 454 2 -4.51053 26.2466 5.1078
9074 454 2 -3.81225 25.8083 5.554
13942 698 4 -43.3977 -14.6587 6.32155
13943 698 4 -44.2396 -14.2938 6.55919
9072 454 2 -4.24413 26.6573 5.93397
13945 698 4 -44.9306 -14.615 5.54172
5971 299 4 -21.752 -13.5816 5.47993
5970 299 4 -22.6298 -13.342 5.3826
11559 578 2 57.6377 25.6503 5.9798
13941 698 4 -43.142 -13.766 6.51066
11560 578 2 58.4989 25.7115 6.32125
14303 716 4 -41.2559 25.3999 5.29946
7458 373 4 -60.3405 45.374 6.26047
7459 373 4 -60.6071 46.2881 6.28481
7460 373 4 -59.968 46.9184 6.11887
8922 447 2 -19.0404 28.0679 6.00603
8921 447 2 -19.7538 27.7291 5.58495
8924 447 2 -18.9344 26.924 6.47726
5975 299 4 -19.8821 -12.2725 6.66496
7279 364 4 -38.2418 27.7024 5.60734
1926 97 2 42.821 46.9218 5.35138
7278 364 4 -38.0673 26.9338 6.0266
12265 614 2 2.62817 -11.7154 5.42181
6613 331 4 23.2817 67.6818 6.45304
12261 614 2 2.301 -11.8738 6.44314
1925 97 2 43.6644 47.3519 5.57165
1924 97 2 44.2641 48.0006 5.87441
6012 301 4 44.9638 46.999 6.02604
5699 285 4 -34.5815 -52.0875 5.471
5697 285 4 -34.0268 -53.1818 5.53634
2552 128 2 -33.5094 -52.4591 6.29953
6011 301 4 45.4016 47.7109 6.45519
225 12 2 -31.9182 48.2935 5.60511
2554 128 2 -32.3555 -52.7208 5.30446
2553 128 2 -33.1033 -52.2427 5.51683
2541 128 2 -32.0145 -52.7879 6.57929
2096 105 2 9.50637 7.04792 5.47244
13954 698 4 -49.4374 -12.3761 6.18565
13955 698 4 -48.7864 -12.9752 6.25369
13953 698 4 -49.0362 -12.6223 5.3412
13952 698 4 -48.1765 -12.4447 5.51962
12255 613 2 -7.77252 27.7343 6.51551
4579 229 4 -45.3447 7.16025 5.81528
4577 229 4 -46.5382 8.26647 6.37779
4578 229 4 -46.1099 7.70842 5.77789
2084 105 2 13.5503 6.74073 5.43618
9067 454 2 -5.03285 28.189 6.60092
5969 299 4 -23.4141 -12.9934 5.38449
9071 454 2 -4.18093 27.3896 6.45735
9070 454 2 -3.39945 27.7947 6.42041
9227 462 2 17.8836 8.32722 5.59945
9228 462 2 17.8341 7.57427 6.0762
5972 299 4 -21.4498 -12.7813 5.07255
5973 299 4 -20.7242 -12.2625 5.27978
5974 299 4 -20.6542 -12.4195 6.17321
13382 670 4 -79.2303 9.28935 6.24388
13383 670 4 -79.6448 8.97618 5.4553
12262 614 2 1.49324 -11.4334 6.62873
13385 670 4 -78.3174 9.87273 5.19693
13386 670 4 -77.4509 9.97687 5.50277
6018 301 4 43.1899 49.2553 5.24968
12264 614 2 1.89923 -11.2573 5.12869
12263 614 2 1.7047 -10.8463 5.93554
12266 614 2 3.31426 -11.3934 5.96343
12267 614 2 2.59888 -10.9095 6.21273
6020 301 4 44.9161 49.045 5.67644
6019 301 4 44.0777 49.2707 5.60943
12268 614 2 3.41373 -10.5813 6.43758
6009 301 4 45.7306 49.2467 6.55826
2551 128 2 -33.6737 -51.638 6.5725
6008 301 4 46.2366 49.0978 5.83903
224 12 2 -31.8391 49.0797 6.02203
6006 301 4 47.5021 48.3973 6.60826
6007 301 4 47.1682 48.82 5.8848
221 12 2 -30.9677 49.5478 5.04952
6004 301 4 48.8753 48.4158 6.4667
223 12 2 -31.4185 49.6046 6.57969
5263 264 4 29.8255 29.0247 5.07266
5261 264 4 29.6433 29.3029 6.02964
222 12 2 -31.4716 49.9342 5.73756
5262 264 4 30.4964 29.3336 5.61007
12257 613 2 -8.79715 28.5508 5.67725
1600 80 2 52.0014 8.86623 5.15255
9063 454 2 -6.96152 28.6904 5.40692
12256 613 2 -7.95587 28.5172 6.02829
1599 80 2 52.5108 9.36563 5.74161
4882 245 4 -8.24883 -30.1052 5.10708
1598 80 2 52.9967 9.95673 6.23852
9065 454 2 -5.4176 29.1493 5.10721
9064 454 2 -6.26528 29.3153 5.35477
9066 454 2 -5.31755 28.5694 5.81273
9068 454 2 -4.33979 28.5951 6.10318
7441 373 4 -63.6798 49.4578 5.53401
4935 247 4 -4.49883 -130.361 6.16521
7442 373 4 -62.9682 49.0648 5.98441
7443 373 4 -62.3788 48.6847 6.55642
9226 462 2 18.6761 8.74551 5.50389
9221 462 2 19.8127 9.78893 5.89756
402 21 2 21.6502 31.0668 5.69524
9222 462 2 20.3837 10.3149 5.39408
8482 425 4 20.4274 11.3224 5.55135
8481 425 4 20.1302 10.7875 6.27321
403 21 2 22.1827 30.944 6.41408
404 21 2 22.656 30.1446 6.46847
13389 670 4 -77.0774 11.3941 5.73427
13388 670 4 -76.4227 10.8933 5.31178
12269 614 2 3.70531 -9.79813 6.07798
12270 614 2 4.31518 -9.14185 6.19219
12275 614 2 4.8942 -8.85533 5.37941
12271 614 2 5.10452 -8.76015 6.4556
12272 614 2 5.41622 -9.60574 6.57568
11074 554 2 6.32542 31.4113 6.38846
12274 614 2 5.40067 -9.5551 5.08926
12273 614 2 5.03624 -9.97449 5.84095
5270 264 4 26.2583 30.5559 5.55978
5271 264 4 26.4426 30.0021 6.29807
11073 554 2 6.20445 31.6165 5.48327
5267 264 4 28.2165 31.5294 5.1371
5269 264 4 27.1381 30.271 5.68078