ITEM: TIMESTEP
22000000
ITEM: NUMBER OF ATOMS
17280
ITEM: BOX BOUNDS pp pp pp
0.0000000000000000e+00 2.0000000000000000e+01
0.0000000000000000e+00 2.0000000000000000e+01
0.0000000000000000e+00 1.2000000000000000e+02
ITEM: ATOMS id mol type xu yu zu
10640 532 1 28.9299 64.99 1.31566
9901 496 1 -14.397 28.0313 1.29068
11461 574 1 29.2527 30.9812 1.30496
11360 568 1 116.444 -46.6855 1.46798
16002 801 2 21.6218 -18.4613 3.29853
14981 750 2 42.9499 21.0533 2.97057
5201 261 2 25.6961 20.0432 2.68134
427 22 1 45.2444 80.8129 3.26227
5203 261 2 26.9586 20.4398 3.0758
15212 761 2 29.4335 40.5719 2.6222
15211 761 2 28.5466 40.7723 2.81942
11303 566 1 70.1113 41.4057 2.67725
643 33 1 32.6504 -19.3769 2.94632
642 33 1 32.2417 -19.7705 2.24551
644 33 1 33.3796 -19.9502 3.08975
16001 801 2 21.2677 -17.6363 3.14874
14702 736 2 -12.4407 43.1466 2.76815
14703 736 2 -11.9151 42.453 2.61953
10636 532 1 29.3581 62.9598 2.86808
10637 532 1 29.7522 63.0805 2.04289
11302 566 1 70.2042 42.1106 3.20457
11301 566 1 70.9595 42.6748 3.17144
551 28 1 46.2643 44.647 2.51867
550 28 1 47.1742 44.4272 2.39889
10638 532 1 29.5468 63.9432 2.18091
10639 532 1 28.7661 64.3051 1.85493
14073 704 2 74.3425 43.3556 3.23963
552 28 1 45.5564 45.048 2.94616
549 28 1 47.5896 45.183 2.68677
547 28 1 47.8673 46.0118 3.25802
548 28 1 48.3732 45.6612 2.58486
4860 243 2 12.384 -14.6184 3.11624
4859 243 2 12.3521 -13.6832 3.07269
2782 140 1 -6.01185 -14.6557 3.20953
2784 140 1 -6.09967 -13.6198 2.99637
2783 140 1 -5.25163 -14.0838 3.08903
9902 496 1 -14.6091 28.2747 2.15679
542 28 1 48.2838 48.2736 3.18308
7199 360 2 73.124 87.0882 3.11708
7200 360 2 72.2578 87.3497 3.24459
7198 360 2 73.9249 87.3651 2.827
9920 496 1 -23.9726 28.3177 3.29476
7196 360 2 75.0354 87.3659 3.31452
9912 496 1 -18.992 29.1952 3.25155
13278 664 2 62.7545 -31.4877 2.64726
13280 664 2 61.718 -30.6132 1.97298
13279 664 2 61.8073 -31.3919 2.50341
9906 496 1 -16.2788 29.7676 3.09226
9905 496 1 -15.5089 29.4946 2.60256
9903 496 1 -14.0866 29.0019 2.37877
9904 496 1 -14.7538 29.5528 2.0187
5053 253 2 89.1067 48.9727 3.32189
5054 253 2 89.2413 49.7244 2.72225
6381 320 2 73.3569 28.6704 3.26676
9909 496 1 -17.0833 30.6787 3.11987
9860 493 1 46.1609 10.1163 3.04197
5798 290 2 5.16068 31.2994 3.07563
5056 253 2 88.8568 50.6296 2.99634
5055 253 2 89.5687 50.5296 2.43435
11462 574 1 28.5087 30.7013 1.70505
11463 574 1 28.7661 31.3838 2.25649
11354 568 1 114.987 -49.0015 2.4116
11353 568 1 114.974 -49.7879 2.99833
11355 568 1 115.687 -48.4733 2.841
11356 568 1 116.62 -48.4501 2.99171
7924 397 2 40.1989 73.2271 2.63284
4941 248 2 83.1969 53.1671 2.80861
4942 248 2 82.8265 52.4187 3.171
3501 176 1 104.709 52.7944 3.21946
5799 290 2 5.69071 32.0521 3.22972
5800 290 2 5.68136 32.834 2.7808
11465 574 1 28.1947 32.717 2.90591
11464 574 1 28.5722 32.2846 2.25218
589 30 1 71.696 -6.78607 2.96438
7173 359 2 134.629 -7.40615 2.55235
7172 359 2 134.949 -7.70692 3.31975
7176 359 2 135.821 -7.08852 2.83136
11359 568 1 116.699 -47.027 2.29403
11357 568 1 117.275 -47.8669 2.75024
11358 568 1 117.357 -46.9201 2.91097
7925 397 2 40.2911 73.8819 3.30734
7174 359 2 134.747 -6.65587 3.10882
7175 359 2 135.432 -6.31319 2.60296
1984 100 1 -0.76306 -26.1109 2.91986
1985 100 1 -0.866305 -25.2543 3.12524
14424 722 2 30.734 35.6072 3.30498
14425 722 2 30.4757 36.3714 2.93229
14427 722 2 31.7099 36.3866 2.45506
583 30 1 73.5404 -4.3566 2.93002
6568 329 2 18.6332 -4.02252 3.18101
5242 263 2 66.3931 37.5031 2.85548
5241 263 2 66.2904 38.2945 3.28768
11636 582 1 8.13901 18.1395 2.74566
11635 582 1 7.38867 17.9222 3.2503
3480 174 1 49.6844 16.7849 2.39695
11637 582 1 8.8484 18.1315 3.26812
3479 174 1 50.1714 17.503 2.77764
3478 174 1 50.9687 17.8405 2.42751
14426 722 2 30.9312 36.8015 2.2875
14428 722 2 32.1723 37.1576 2.42886
14429 722 2 32.9683 37.2042 2.85821
14430 722 2 32.7784 38.0623 2.65562
14431 722 2 32.2213 37.6853 3.25625
12611 631 1 -65.2102 -21.9361 3.2522
2642 133 1 58.5353 37.8534 3.08636
430 22 1 44.9611 78.7245 3.19264
5202 261 2 26.5874 19.7223 2.71746
11640 582 1 8.71205 18.616 1.89292
11639 582 1 9.36711 19.2669 2.02779
11638 582 1 9.11378 18.9302 2.86161
15215 761 2 30.1543 38.6539 3.22644
15217 761 2 31.1208 39.0896 2.56135
15216 761 2 30.2433 39.2547 2.55154
641 33 1 32.9921 -20.2859 2.19934
15218 761 2 31.8256 39.575 2.85935
12613 631 1 -65.3959 -20.7532 3.20663
12612 631 1 -64.5658 -21.1835 3.13195
16003 801 2 21.5687 -19.01 3.98642
11036 552 1 20.8133 1.55813 4.3901
11037 552 1 20.6027 0.733693 4.69797
11038 552 1 21.4078 0.333567 4.82485
16004 801 2 22.308 -19.6087 4.09845
2201 111 1 -16.6768 40.546 4.39524
14983 750 2 43.5413 21.5276 4.04901
14985 750 2 44.4716 21.6547 4.89748
14984 750 2 44.4277 21.2382 4.09205
424 22 1 46.416 81.3932 4.56236
5205 261 2 26.2138 20.3799 3.99337
433 22 1 45.0088 80.3266 4.65859
434 22 1 45.3732 81.1574 4.61026
15209 761 2 28.3101 41.1152 4.21659
15210 761 2 27.9684 40.6454 3.51888
423 22 1 47.4067 81.2111 4.53787
5204 261 2 27.127 20.093 3.94822
15213 761 2 29.5319 40.2486 3.47368
15208 761 2 28.8282 41.1626 4.96868
11304 566 1 70.7749 41.2508 3.36197
11305 566 1 70.441 40.6007 3.87007
14715 736 2 -8.46553 40.5365 4.3639
14714 736 2 -8.97763 41.3157 4.53289
647 33 1 32.6107 -19.2452 4.45557
645 33 1 33.873 -19.6102 3.77829
646 33 1 33.4552 -19.6277 4.5832
11035 552 1 19.9139 1.49872 4.23858
11033 552 1 20.0069 3.29516 4.05818
11032 552 1 20.6177 2.78449 4.59571
14982 750 2 42.8408 21.7701 3.52892
425 22 1 45.764 81.8955 4.23343
426 22 1 45.3489 81.7316 3.45851
5216 261 2 26.4855 22.3597 4.86254
5217 261 2 26.3488 23.0408 4.33949
5218 261 2 25.4393 23.0894 4.1724
14701 736 2 -13.0886 43.2196 3.39556
422 22 1 47.6613 82.0382 4.28945
421 22 1 48.2936 81.9612 4.94549
14704 736 2 -11.7339 42.0183 3.39466
10635 532 1 28.6021 63.0922 3.33566
14706 736 2 -10.2331 41.9776 4.36028
14705 736 2 -11.0023 41.9533 3.90708
10627 532 1 28.4471 63.2397 4.73881
10628 532 1 29.2112 62.7012 4.78611
14707 736 2 -9.98725 42.8222 3.95969
10630 532 1 30.8994 63.1259 4.9864
14708 736 2 -9.24815 42.3227 4.12565
14709 736 2 -8.30339 42.4528 4.24835
14072 704 2 74.3956 42.435 3.41651
14071 704 2 74.4858 42.445 4.38132
660 33 1 38.1656 -17.4292 4.993
11034 552 1 19.7699 2.41335 4.20482
11031 552 1 20.6307 3.71727 4.86478
14221 712 2 62.3864 -15.4194 4.76258
555 28 1 44.5969 43.4715 4.47553
554 28 1 44.8741 44.0603 3.80269
1352 68 1 3.76701 64.8102 4.29115
1351 68 1 3.39241 64.0082 4.61921
13265 664 2 64.8042 -35.0586 4.50473
5219 261 2 25.662 23.4879 4.96847
553 28 1 45.733 44.5173 3.68652
5042 253 2 86.6352 44.0869 4.82074
5043 253 2 86.7832 44.9613 4.545
5044 253 2 87.6919 44.7419 4.55124
5045 253 2 87.5825 44.4802 3.69951
10634 532 1 28.9771 63.7897 3.79043
10633 532 1 29.818 63.9729 4.08768
14622 732 2 49.1937 44.6443 4.63454
1 1 1 30.8462 63.3871 3.70248
10631 532 1 31.508 63.5643 4.50571
10632 532 1 30.6363 64.0689 4.54122
2 1 1 31.7673 63.5377 3.61919
3 1 1 32.337 64.2413 3.54234
4 1 1 32.8176 63.73 4.1164
5 1 1 32.6562 63.3407 4.94055
14079 704 2 72.7018 44.8263 4.45058
2781 140 1 -5.51947 -15.3404 3.54584
14075 704 2 74.7119 44.2568 4.50028
14076 704 2 74.0858 44.836 4.84833
14074 704 2 73.9967 43.7921 4.00365
14078 704 2 73.5651 44.9211 4.00841
15534 777 2 57.0899 84.4651 4.59006
14504 726 2 39.0593 24.5075 4.68272
14506 726 2 40.1777 25.6144 4.90168
1353 68 1 3.07933 65.4918 4.23351
13268 664 2 63.7012 -33.884 3.58441
13267 664 2 64.3 -34.6293 3.51508
1354 68 1 3.36014 66.0026 4.95854
13266 664 2 64.339 -34.2722 4.43176
13261 664 2 66.1155 -33.8224 4.35318
13264 664 2 65.242 -34.3352 4.93955
5046 253 2 88.2772 45.049 3.6202
546 28 1 47.2598 46.1252 3.91087
5047 253 2 89.178 45.2035 3.70925
5049 253 2 89.4401 46.5342 3.46962
5048 253 2 89.8526 45.7366 3.38654
10943 548 1 89.4958 6.00001 4.31457
4857 243 2 11.0139 -14.6243 4.001
4858 243 2 11.6127 -14.1165 3.5159
4856 243 2 10.8908 -14.573 4.93915
10942 548 1 90.3811 6.12483 4.18827
14080 704 2 72.1881 45.5601 4.30393
2785 140 1 -6.67293 -13.8167 3.72492
14077 704 2 74.0848 45.6297 4.29766
15531 777 2 55.9429 86.3802 4.63148
15532 777 2 56.2676 85.5564 4.72124
15533 777 2 57.0775 85.3807 4.39285
15530 777 2 56.8325 86.6049 4.71
15524 777 2 58.2152 86.2931 4.71799
14505 726 2 39.6634 25.0773 4.3217
14507 726 2 39.5828 26.3018 4.81314
13273 664 2 61.2044 -31.8246 3.81567
2061 104 1 60.8623 26.9311 4.3836
13269 664 2 63.257 -33.2618 4.02849
13271 664 2 62.6429 -32.5662 3.34579
13272 664 2 61.7472 -32.5389 3.64201
9846 493 1 42.0186 8.22161 4.9499
9847 493 1 41.7508 7.38077 4.7943
9848 493 1 42.6749 7.25139 4.90854
13270 664 2 63.5945 -32.5836 3.5585
9849 493 1 43.385 7.84354 4.61085
1355 68 1 3.9491 66.6754 4.81076
9850 493 1 44.1736 8.2561 4.4212
4913 246 2 65.6044 -11.8513 4.53465
545 28 1 47.0872 46.9665 3.63105
543 28 1 48.2719 47.841 3.96248
544 28 1 47.3431 47.8102 3.85475
14627 732 2 47.7597 47.0545 4.50974
8258 413 2 128.436 68.3028 4.93139
5052 253 2 89.3663 48.313 3.90911
8259 413 2 129.176 67.6804 4.89453
14626 732 2 48.5564 46.8021 4.86731
5050 253 2 90.0926 47.171 3.40703
5051 253 2 90.0607 48.0687 3.37202
10941 548 1 90.847 6.73568 4.69973
2786 140 1 -7.09915 -13.0796 4.12958
2788 140 1 -8.08067 -12.4888 4.60633
2787 140 1 -7.99556 -13.3182 4.27696
2789 140 1 -7.23928 -12.1551 4.77856
7197 360 2 74.2172 87.4679 3.7131
2790 140 1 -6.54121 -12.0713 4.19667
2791 140 1 -6.38593 -12.7116 4.83665
7194 360 2 75.0411 87.1464 4.60962
9919 496 1 -23.3375 27.7849 3.7367
7195 360 2 75.0601 87.9583 4.12033
15525 777 2 58.0932 87.1278 4.39216
15526 777 2 57.5485 87.8099 4.56237
14508 726 2 39.89 27.1605 4.62771
9913 496 1 -19.8104 28.956 3.6701
13275 664 2 61.6183 -31.043 4.48062
13274 664 2 60.7727 -31.4138 4.53581
9910 496 1 -17.5018 29.9891 3.47119
9911 496 1 -18.1077 29.3092 3.57524
13276 664 2 62.5587 -30.9504 4.34936
13277 664 2 62.5978 -31.5217 3.57667
14232 712 2 61.8391 -10.0508 4.5043
9907 496 1 -16.6319 29.5736 3.95621
9852 493 1 44.653 9.08437 4.88637
4915 246 2 64.6523 -10.5232 3.66424
9851 493 1 43.7403 9.05288 4.79533
4914 246 2 65.0789 -11.2847 4.04983
9858 493 1 46.5119 8.62413 3.87552
9859 493 1 46.2659 9.4838 3.69294
9853 493 1 45.4041 9.6424 4.68159
541 28 1 48.0697 49.0084 3.66543
8256 413 2 127.865 69.6514 4.50922
9857 493 1 47.1603 8.98665 4.41165
8257 413 2 128.645 69.126 4.59066
2870 144 1 9.44477 -10.0686 4.9136
2863 144 1 9.95423 -10.3975 3.919
2864 144 1 10.433 -10.849 4.59521
6384 320 2 74.4846 29.8581 3.8737
6382 320 2 74.1607 28.7278 3.68747
6394 320 2 74.3017 29.1075 4.79973
6393 320 2 73.3641 28.9432 4.7368
6383 320 2 75.0208 29.1015 3.76335
11350 568 1 115.847 -50.533 4.27041
9917 496 1 -22.1958 29.0872 3.91856
9918 496 1 -22.9805 28.6036 4.09405
9914 496 1 -20.1809 28.4436 4.36538
9916 496 1 -21.5926 28.823 4.57447
9915 496 1 -20.8566 28.9946 4.05844
11862 594 1 59.9582 9.52511 4.52039
11864 594 1 60.9409 10.7154 4.96667
9908 496 1 -16.8035 30.4578 3.97464
4920 246 2 62.804 -8.52177 4.10844
4919 246 2 63.1556 -8.41936 4.97023
5797 290 2 4.78105 31.2871 3.90943
4917 246 2 64.3123 -9.56797 4.59215
4916 246 2 64.3194 -9.67797 3.68669
8253 413 2 126.262 71.2304 4.28516
7622 382 2 45.4268 70.6811 4.80579
7621 382 2 45.3546 70.3513 3.96211
8255 413 2 127.478 70.5353 4.73923
8251 413 2 127.819 71.3438 3.42916
8252 413 2 126.883 71.3654 3.52977
3508 176 1 107.694 51.44 4.53217
5057 253 2 89.0497 50.2768 3.83779
5058 253 2 89.376 51.1789 3.74855
2872 144 1 8.59393 -8.78991 4.89516
2873 144 1 9.41505 -9.17027 4.71704
2862 144 1 10.1204 -9.59908 4.32017
2861 144 1 11.0182 -9.47829 4.22026
5059 253 2 90.0958 51.5068 4.29233
5060 253 2 90.6825 51.4947 3.61175
14637 732 2 51.0681 51.6066 4.89364
14638 732 2 51.8671 51.3163 4.59915
597 30 1 72.9936 -8.85871 4.93942
6385 320 2 73.8205 30.461 3.78535
6387 320 2 74.0097 31.4323 4.97573
6386 320 2 74.2985 30.6404 4.57447
7168 359 2 136.588 -9.34721 3.94625
11352 568 1 115.742 -49.8402 3.52932
11351 568 1 115.344 -49.7818 4.38592
7169 359 2 136.347 -9.30461 4.8434
7170 359 2 135.893 -8.64247 4.36454
7167 359 2 137.386 -9.18024 4.3976
7166 359 2 137.362 -9.90608 4.93761
7939 397 2 38.4225 71.1584 4.82096
4945 248 2 81.4474 53.0347 4.40156
7923 397 2 40.4628 72.8309 3.4204
11869 594 1 60.445 12.8294 4.91327
4943 248 2 81.9255 52.5343 3.51786
4944 248 2 81.6827 52.1617 4.30161
4960 248 2 82.9807 52.5414 4.36267
5796 290 2 4.68717 32.0067 4.51529
3505 176 1 105.915 52.7051 4.39089
5795 290 2 5.03249 32.7584 4.94979
3506 176 1 106.534 52.1648 4.85177
8243 413 2 127.529 73.0769 4.78977
11466 574 1 27.9939 32.788 3.81653
3507 176 1 107.181 52.113 4.20753
8248 413 2 128.99 72.9841 3.6778
8250 413 2 128.468 71.8781 3.9296
8249 413 2 129.184 72.1547 3.387
11467 574 1 28.536 32.789 4.63886
592 30 1 70.5656 -7.44552 4.63464
593 30 1 71.4645 -7.49075 4.59554
5442 273 2 32.4163 92.1305 4.50839
5443 273 2 32.3783 93.0495 4.62302
5441 273 2 33.3583 92.1501 4.54143
768 39 1 13.623 13.1569 4.83322
761 39 1 14.8937 12.9021 4.33243
7177 359 2 135.721 -7.07194 3.75506
7178 359 2 136.483 -7.58727 3.51442
762 39 1 15.4564 13.3285 4.92353
7171 359 2 135.215 -8.05336 4.16004
16439 822 2 76.4867 13.2682 4.77288
7179 359 2 137.162 -7.99951 3.98399
7180 359 2 137.747 -7.22916 3.83104
11343 568 1 117.215 -48.1532 4.99379
7921 397 2 39.7303 73.1402 4.1431
1982 100 1 -1.21757 -27.3644 3.89437
1981 100 1 -1.06265 -27.7393 4.73689
4946 248 2 81.6492 53.723 3.83187
7922 397 2 40.6078 73.4113 4.0938
4947 248 2 82.5833 53.631 4.00217
14304 716 2 -58.2448 14.5471 4.82818
4950 248 2 82.6753 54.6496 4.41579
4948 248 2 83.5279 53.5172 3.89114
16020 801 2 24.5073 -26.6213 4.33697
4949 248 2 83.5512 54.4453 4.08347
16019 801 2 24.7745 -25.7233 4.32742
3503 176 1 105.758 54.0219 4.04434
3502 176 1 105.211 53.4391 3.59985
3504 176 1 105.948 53.5153 4.80434
8244 413 2 127.517 73.6242 4.09686
8245 413 2 127.382 74.3823 3.55335
8246 413 2 128.158 74.5449 3.96692
8242 413 2 128.159 73.7534 4.8332
1899 95 1 -32.9996 -5.67654 4.87791
8247 413 2 128.733 73.8215 3.86385
11468 574 1 29.2091 33.4418 4.67623
15353 768 2 89.4188 54.5813 4.07978
590 30 1 71.0755 -6.49941 3.55891
591 30 1 70.9385 -6.63606 4.4925
12602 631 1 -68.6849 -25.2597 4.86512
15356 768 2 90.0343 54.0864 4.67251
587 30 1 71.765 -5.22338 3.78094
586 30 1 72.5399 -5.36613 4.22191
585 30 1 73.0264 -5.84403 3.58719
588 30 1 71.9362 -6.08817 3.53271
5444 273 2 31.9019 93.8566 4.66085
767 39 1 13.8151 13.3348 3.91625
5447 273 2 33.5642 94.3387 4.8996
766 39 1 14.1891 14.1272 3.59698
765 39 1 14.771 14.3335 4.27956
1993 100 1 -3.64499 -25.6427 4.29919
1992 100 1 -2.8991 -25.6663 4.86045
1987 100 1 -2.34129 -25.3138 4.15015
16438 822 2 77.2682 13.4238 4.37632
1983 100 1 -1.18782 -26.4386 3.65975
7926 397 2 39.6276 74.226 3.89893
1986 100 1 -1.6147 -25.0266 3.5983
7927 397 2 39.6149 74.2315 4.83443
12674 634 1 20.8418 16.6127 3.89657
12676 634 1 20.8631 16.0483 4.86513
12677 634 1 20.3471 15.5514 4.29021
12675 634 1 21.5609 16.2461 4.27043
14302 716 2 -57.5595 16.0045 4.81654
9624 482 1 63.4886 15.2741 4.83434
9623 482 1 63.6161 16.0006 4.27572
16017 801 2 24.7123 -24.0757 3.86007
16016 801 2 24.6239 -24.5478 4.69364
16018 801 2 25.0114 -24.9169 3.74722
8122 407 2 66.0481 -4.72628 4.20057
11626 582 1 6.28512 16.4935 4.86731
8121 407 2 66.9422 -4.56095 4.29906
15354 768 2 89.6191 55.1977 4.75359
15351 768 2 88.626 55.9797 3.66768
15352 768 2 89.3221 55.3557 3.62848
14423 722 2 30.7631 36.2272 4.02667
12601 631 1 -69.2364 -24.99 4.2205
14422 722 2 30.3336 36.0514 4.83256
584 30 1 73.1833 -4.86488 3.63731
12604 631 1 -67.6691 -23.9257 4.53512
4553 228 2 93.2228 36.3528 4.74625
12605 631 1 -68.2017 -24.1671 3.77233
4554 228 2 93.1847 35.4342 4.64155
581 30 1 74.6782 -4.12897 4.23087
582 30 1 74.2976 -4.29051 3.41266
4552 228 2 93.649 36.4141 3.91777
1994 100 1 -3.65053 -24.7309 4.12084
1995 100 1 -3.57437 -23.8017 4.31973
1988 100 1 -1.96466 -24.7616 4.79982
6569 329 2 18.042 -4.1151 3.8513
6570 329 2 17.5432 -3.39888 4.08924
6566 329 2 19.2395 -3.55313 4.8064
6567 329 2 19.1833 -3.97764 3.97301
12672 634 1 21.0075 17.6662 3.92387
12673 634 1 20.1614 17.2096 4.0603
14301 716 2 -57.3259 16.8936 4.56795
12671 634 1 21.7087 17.7494 4.5328
9621 482 1 64.2294 17.5268 4.13181
9622 482 1 64.155 16.7281 4.53755
11623 582 1 4.9385 17.6038 4.93608
11624 582 1 5.57678 17.003 4.68539
11625 582 1 6.13265 16.7057 3.99045
5243 263 2 65.6045 37.4909 3.4376
5244 263 2 65.5684 38.0697 4.1606
5245 263 2 66.2477 37.9302 4.76339
11629 582 1 7.39234 17.4341 4.93733
11634 582 1 6.8237 17.628 4.0117
15350 768 2 88.1843 56.7326 3.38413
15348 768 2 88.4271 57.9543 4.23174
15346 768 2 89.6478 58.1262 4.38195
15349 768 2 88.6388 57.051 4.12122
3474 174 1 50.8821 17.2407 4.57231
3475 174 1 50.2171 17.3586 3.92343
3476 174 1 50.9511 17.2 3.42979
3477 174 1 51.1971 18.0285 3.34004
14432 722 2 32.0279 38.13 3.99971
3473 174 1 51.6933 17.5923 4.79087
12606 631 1 -68.2016 -23.2848 3.61452
12607 631 1 -67.4736 -22.9791 4.07573
12608 631 1 -66.7717 -22.6386 4.55086
4551 228 2 94.0987 36.8419 4.58791
4550 228 2 94.5767 37.233 3.86491
12610 631 1 -66.0511 -21.6965 3.46257
12609 631 1 -66.5626 -22.4347 3.71079
4549 228 2 94.2083 37.8425 4.46308
1999 100 1 -4.11077 -22.5312 3.69544
1998 100 1 -3.70726 -22.302 4.53042
4548 228 2 95.1016 38.0984 4.52619
6571 329 2 18.193 -3.09405 4.67169
6572 329 2 17.505 -2.49377 4.76857
2643 133 1 57.9893 37.6939 3.83508
2000 100 1 -3.16442 -22.4708 3.71747
2641 133 1 58.9063 37.1104 3.53397
2644 133 1 58.7594 37.81 4.33559
2645 133 1 59.5962 38.043 4.70636
6562 329 2 20.5726 -1.27674 4.96761
16006 801 2 22.5327 -20.7014 4.96779
16005 801 2 22.0039 -20.4915 4.19861
431 22 1 44.333 78.9876 3.85611
432 22 1 44.3634 79.7927 4.29875
16007 801 2 23.3383 -20.976 4.61296
11621 582 1 5.16791 19.1641 4.70817
5206 261 2 26.2974 19.5254 4.27471
429 22 1 45.7024 79.1622 3.47215
428 22 1 45.3088 79.9685 3.7712
11633 582 1 6.99063 18.4905 4.25636
5207 261 2 26.9033 19.3087 4.9737
11631 582 1 7.7724 18.6033 4.97696
11632 582 1 7.60023 19.1189 4.25936
15214 761 2 29.8245 39.3986 3.61127
440 22 1 48.3397 79.8801 4.24738
15347 768 2 88.9386 58.6703 4.49551
15219 761 2 31.4579 39.199 3.65815
11306 566 1 70.6068 39.9208 4.45544
15345 768 2 90.4755 58.4908 4.42367
15220 761 2 31.9445 39.0852 4.4555
14434 722 2 32.8456 39.4768 3.95115
14435 722 2 32.7355 39.6263 4.84136
14433 722 2 32.8376 38.5879 3.85921
12614 631 1 -65.9984 -20.6128 3.89051
12615 631 1 -65.4745 -21.1416 4.43488
6580 329 2 14.5299 -0.136113 4.76402
6577 329 2 16.3271 -1.09922 3.93436
6578 329 2 15.9833 -0.876165 4.75598
6579 329 2 15.2984 -0.36482 4.29101
6576 329 2 17.0455 -1.31922 3.42912
6574 329 2 17.2365 -1.4094 4.59428
6575 329 2 17.5971 -0.833915 3.98068
2648 133 1 58.5785 39.5379 4.96406
2646 133 1 59.6854 38.9804 4.57104
2649 133 1 58.5692 38.6053 4.9493
2214 111 1 -18.884 40.5186 6.57234
2216 111 1 -19.2949 41.4555 5.37453
2215 111 1 -19.2019 40.6476 5.72135
6513 326 2 1.79342 41.4268 5.61167
2202 111 1 -16.7208 40.7117 5.3002
2213 111 1 -18.0516 40.4724 6.1819
2212 111 1 -17.3369 41.0406 6.11736
2203 111 1 -15.8163 40.5648 5.2488
2204 111 1 -16.058 40.2036 6.0395
2205 111 1 -15.5683 40.8074 6.52036
2206 111 1 -16.0926 41.4707 6.08268
435 22 1 45.9845 80.6147 5.05914
14988 750 2 45.3072 21.3364 6.65408
13320 666 2 5.1083 40.892 5.71967
13319 666 2 5.2887 40.1644 6.27796
5213 261 2 27.1804 20.8568 5.92798
5214 261 2 27.8983 21.4493 5.72486
5212 261 2 27.2558 20.073 6.37149
436 22 1 46.8652 80.3401 5.06533
437 22 1 47.7985 80.3597 5.13952
15207 761 2 28.6797 40.8479 5.87209
15206 761 2 29.5617 40.6619 5.54104
11307 566 1 71.015 40.1552 5.22359
15205 761 2 30.192 40.0714 5.85377
11308 566 1 70.9122 40.835 5.81816
11309 566 1 70.724 41.3568 6.54892
14436 722 2 32.7859 40.2145 5.58568
648 33 1 33.1026 -18.819 5.13556
14716 736 2 -8.12917 40.7372 5.18811
14717 736 2 -8.01991 40.9643 6.07657
14437 722 2 33.3737 40.3361 6.26193
649 33 1 33.8696 -18.933 5.60382
14062 704 2 74.7045 41.2057 6.65465
650 33 1 34.3809 -19.574 5.97979
656 33 1 36.2732 -18.7682 5.98513
655 33 1 36.5468 -19.6426 5.75212
14061 704 2 75.1244 41.2272 5.83763
654 33 1 35.6199 -19.7442 5.82549
658 33 1 37.4317 -18.6027 6.14333
2219 111 1 -21.2219 40.5226 5.75613
8226 412 2 39.165 81.3279 6.35716
2218 111 1 -20.6975 40.6208 5.0511
2220 111 1 -21.45 41.3525 5.32671
2217 111 1 -20.1734 41.3191 5.29248
2286 115 1 -19.101 42.2827 6.07863
2287 115 1 -19.3088 43.1092 5.71048
6514 326 2 1.96801 42.35 5.5732
2211 111 1 -17.124 41.7709 5.63545
2208 111 1 -17.0911 41.8836 6.60829
6512 326 2 1.82782 41.8724 6.43224
2209 111 1 -17.1936 42.6927 6.13149
6515 326 2 1.69723 43.2244 5.69144
556 28 1 44.7706 43.0597 5.28706
557 28 1 44.3505 42.954 6.10788
14986 750 2 44.8884 21.8619 5.70055
14987 750 2 44.9028 22.1467 6.53318
2210 111 1 -16.4106 42.3302 5.7588
10621 532 1 25.5963 63.0284 6.11588
10622 532 1 26.3376 62.498 6.0905
5215 261 2 27.2386 21.9664 5.35263
10624 532 1 27.434 62.2787 6.45278
10626 532 1 28.0826 62.7198 5.43401
10625 532 1 27.8132 63.0886 6.2453
14979 749 2 29.0065 22.0575 6.01825
14978 749 2 28.9447 22.9919 6.07777
14713 736 2 -9.40406 41.7546 5.22891
14712 736 2 -9.21767 42.2841 5.94465
10629 532 1 30.0434 62.9418 5.14851
14711 736 2 -8.49646 41.7592 5.75738
14710 736 2 -8.1279 42.3359 5.14378
14720 736 2 -7.46357 41.8182 6.64476
8 1 1 32.2412 63.0617 5.91523
9 1 1 33.0464 62.6531 6.13882
2777 139 1 114.732 -36.9668 5.28544
14070 704 2 74.0185 42.002 5.12334
14069 704 2 73.4991 42.73 5.08659
10 1 1 33.8634 62.0527 6.25555
2776 139 1 115.45 -37.4523 5.02309
2775 139 1 115.955 -37.7042 5.74968
2773 139 1 116.248 -36.6708 6.42657
659 33 1 37.7548 -17.844 5.6844
2774 139 1 116.675 -37.107 5.70536
2296 115 1 -22.0015 43.0963 6.62185
14502 726 2 39.7136 23.323 5.08119
14501 726 2 39.3166 22.5045 5.29937
8223 412 2 39.3765 82.8128 6.48917
2297 115 1 -21.4627 42.9831 5.90358
11030 552 1 21.0295 4.46101 5.35043
2289 115 1 -19.9692 44.3478 6.48601
6516 326 2 1.26983 43.8331 6.22016
1350 68 1 3.18515 63.542 5.41108
14222 712 2 62.758 -15.4358 5.57176
1349 68 1 4.07487 63.8556 5.55142
1348 68 1 3.66443 64.5503 6.0296
5220 261 2 25.3143 24.3006 5.32206
14973 749 2 25.7608 24.1538 6.64992
14974 749 2 26.5111 23.804 6.22456
3317 166 1 145.96 64.9155 5.92398
5041 253 2 86.8059 43.3682 5.40515
3319 166 1 147.755 64.8967 5.64449
3320 166 1 147.751 63.9626 5.61005
14975 749 2 27.2191 24.1643 6.6281
14977 749 2 28.5246 23.7761 6.27437
14621 732 2 49.6737 44.0716 5.10232
5436 272 2 31.2174 24.2896 6.04579
5437 272 2 30.3421 23.9012 6.16703
10945 548 1 90.2465 4.91115 5.5275
5438 272 2 31.0278 23.3596 6.36997
6 1 1 32.404 64.1123 5.33938
10329 517 1 53.045 4.92353 5.72726
7 1 1 32.2375 63.9146 6.26281
5435 272 2 31.7872 24.87 6.536
2778 139 1 114.775 -36.0194 5.45636
14068 704 2 73.782 43.501 5.44986
2779 139 1 114.113 -35.6302 5.95032
14066 704 2 74.3474 43.4108 6.33055
14067 704 2 73.4433 43.7529 6.26923
15535 777 2 56.4161 84.2134 5.13333
15537 777 2 56.4857 84.3061 6.13807
15536 777 2 55.7554 83.8932 5.66295
2299 115 1 -22.3192 43.7147 5.18138
2300 115 1 -22.5422 44.4332 5.68017
2298 115 1 -21.8422 43.8133 6.02013
15538 777 2 57.2092 83.8468 6.56341
14503 726 2 38.9255 23.7246 5.19219
2288 115 1 -20.0258 43.5081 6.07035
2290 115 1 -20.1832 44.4853 5.57089
2294 115 1 -21.2015 44.1876 6.62896
2292 115 1 -21.5307 44.9389 5.70465
16282 815 2 -19.8988 66.2297 5.75781
16283 815 2 -19.4205 65.4955 5.99883
16284 815 2 -18.9623 66.2329 6.22733
11029 552 1 21.526 5.21095 5.54872
2062 104 1 60.9848 26.5186 5.17206
11028 552 1 21.8282 5.61222 6.29131
14225 712 2 62.6609 -13.412 5.71785
14223 712 2 63.0297 -14.5797 5.76537
14224 712 2 62.412 -14.178 5.28817
1356 68 1 4.22104 66.074 5.46664
1347 68 1 3.9417 65.0903 5.36804
1345 68 1 4.2754 65.3639 6.27699
1346 68 1 4.83209 65.0902 5.62183
1357 68 1 3.70127 66.3376 6.1644
13262 664 2 66.5486 -33.9553 5.15053
13263 664 2 65.6842 -33.7072 5.45435
2881 145 1 26.3301 26.115 6.2905
15709 786 2 45.2067 5.864 6.30028
3318 166 1 146.842 65.1484 5.71412
14624 732 2 48.0921 45.8602 5.51434
14961 749 2 27.5195 25.9463 6.31149
143 8 1 128.205 5.21829 6.60359
14623 732 2 48.7387 45.348 5.07656
10944 548 1 89.8549 5.65345 5.09014
147 8 1 128.816 6.61904 6.20716
10946 548 1 89.8612 5.05822 6.36872
144 8 1 128.927 5.64509 6.16015
4855 243 2 11.1104 -13.9618 5.59248
4854 243 2 10.3123 -13.634 5.94279
10947 548 1 90.6553 5.42897 6.56347
10330 517 1 52.694 5.79244 5.70248
10331 517 1 51.9186 5.81471 6.21974
7188 360 2 73.6588 86.265 5.04111
10328 517 1 53.8133 5.41306 5.7572
10327 517 1 54.655 5.1179 5.60369
7187 360 2 73.3396 86.6222 5.88706
10326 517 1 55.248 5.66518 5.16519
10325 517 1 55.6558 5.28923 5.84674
10324 517 1 55.0424 5.39466 6.49163
2678 134 1 -3.58158 -13.8263 6.53148
10322 517 1 55.6482 6.50704 5.99965
15523 777 2 57.9911 85.4618 5.06254
2679 134 1 -3.26951 -14.6483 6.2534
2677 134 1 -2.76427 -13.6478 6.18283
15522 777 2 58.2388 86.0851 5.69472
15521 777 2 58.2526 86.0464 6.64633
16281 815 2 -20.5459 66.6351 6.28826
2291 115 1 -20.6668 45.3006 5.67861
14228 712 2 61.0696 -11.6849 5.59336
2063 104 1 60.6132 27.2769 5.50612
14227 712 2 61.4572 -12.2195 6.22234
2064 104 1 60.5045 27.6218 6.31841
14226 712 2 61.8581 -13.0568 6.09226
4909 246 2 63.1203 -12.2861 5.95082
4910 246 2 63.872 -12.2225 5.44742
4911 246 2 64.6033 -12.7353 5.34372
4912 246 2 64.941 -11.8917 5.14923
1358 68 1 3.76596 67.2018 6.52782
2882 145 1 26.4847 27.0403 6.20165
3323 167 1 66.1846 7.85327 6.591
14625 732 2 47.9349 46.7558 5.59533
14628 732 2 47.6698 47.7572 5.09681
14629 732 2 48.2241 47.5662 5.82284
8260 413 2 129.465 66.962 5.47799
2868 144 1 9.67802 -11.7595 5.62702
146 8 1 129.634 6.81355 6.5138
4853 243 2 10.6854 -12.961 6.42799
151 8 1 130.569 8.14817 6.6618
152 8 1 131.489 7.91843 6.41804
7181 360 2 72.4481 86.8317 5.2496
7182 360 2 72.527 87.0696 6.13869
2792 140 1 -6.69678 -12.3847 5.65812
7189 360 2 74.4106 86.6879 5.27111
7191 360 2 74.8953 87.6305 6.57022
7193 360 2 74.5103 87.6512 5.22357
2793 140 1 -6.48216 -12.3471 6.57431
7190 360 2 74.5711 86.9092 6.11078
7192 360 2 75.288 87.4623 5.75812
10321 517 1 55.9559 7.31188 6.37353
15529 777 2 56.3061 87.2095 5.23688
15528 777 2 56.5452 88.0714 5.32856
15527 777 2 57.4329 88.2097 5.38879
2675 134 1 -1.8488 -12.3797 5.54629
2676 134 1 -2.66015 -12.9397 5.5556
14509 726 2 39.183 27.3583 5.17951
14510 726 2 39.7698 27.9892 5.56166
14513 726 2 38.5643 27.6999 6.58963
14512 726 2 39.2701 28.2778 6.46083
14229 712 2 61.2437 -11.1867 6.33956
14230 712 2 61.1226 -10.3139 6.19341
14231 712 2 61.5461 -10.2734 5.3527
14511 726 2 40.1111 28.5836 6.15634
9845 493 1 42.0756 8.90309 5.50561
9844 493 1 42.4441 9.45598 6.16144
4908 246 2 63.1045 -11.4002 5.60615
14234 712 2 62.7111 -10.1526 5.2132
4907 246 2 63.7197 -10.8752 6.08019
7627 382 2 44.8817 68.9602 6.46677
9854 493 1 45.69 9.06223 5.36663
9855 493 1 46.5505 8.77544 5.08712
7626 382 2 45.6163 69.4948 6.31459
9856 493 1 47.2055 9.33307 5.29019
5782 290 2 7.50352 28.5523 6.23468
5781 290 2 7.87418 29.3918 6.11839
5783 290 2 6.71811 28.9297 6.61962
14630 732 2 48.5269 48.4089 6.0823
2867 144 1 9.67376 -11.3598 6.51788
2869 144 1 9.41124 -10.896 5.35193
14633 732 2 49.935 49.8546 5.99869
14632 732 2 49.1728 49.701 6.50093
2865 144 1 10.6238 -10.5674 5.41763
2866 144 1 10.4787 -11.0535 6.18029
153 8 1 131.448 8.79026 6.55848
154 8 1 131.898 9.58512 6.5975
155 8 1 132.087 9.24493 5.73522
156 8 1 132.508 8.57125 6.11386
6391 320 2 73.0852 29.6783 6.36218
6392 320 2 73.4397 29.2357 5.59098
6395 320 2 74.862 28.7493 5.52165
6390 320 2 74.0687 29.7246 6.49407
11349 568 1 115.737 -51.0755 5.00857
11348 568 1 115.339 -50.3084 5.2725
6397 320 2 75.5729 29.2581 6.55639
6396 320 2 75.5499 28.4957 6.08066
7165 359 2 136.667 -10.0493 5.53006
2672 134 1 -1.78378 -10.0798 5.9811
7164 359 2 137.238 -10.669 5.83132
7162 359 2 137.502 -11.4998 6.26122
2674 134 1 -1.50954 -11.5498 5.6691
2673 134 1 -1.57332 -10.8763 6.32209
11861 594 1 59.4188 8.91968 5.07492
7937 397 2 39.184 69.7001 5.66992
7936 397 2 39.8832 69.8047 6.29303
11866 594 1 60.123 11.3025 5.79371
11863 594 1 60.3769 10.0304 5.16759
11865 594 1 60.7473 10.6685 5.85522
14238 712 2 61.6194 -8.46533 5.72109
14239 712 2 61.3719 -8.34824 6.58431
14233 712 2 62.265 -9.3788 5.05277
14235 712 2 63.1423 -9.72498 5.91238
14236 712 2 62.7363 -9.36764 6.64165
14237 712 2 62.4899 -8.73499 6.02952
4918 246 2 63.5727 -9.24145 5.06959
9639 482 1 63.9988 11.1616 5.94209
9638 482 1 64.6932 11.2072 5.36733
7623 382 2 44.8376 70.1949 5.34923
7624 382 2 44.3633 70.1289 6.15148
3516 176 1 105.701 50.7367 5.87416
3517 176 1 106.1 51.0638 6.64203
3515 176 1 106.387 50.2176 5.57976
8254 413 2 126.77 71.1246 5.08126
3510 176 1 107.956 51.1249 5.80808
3514 176 1 107.012 50.1553 6.2546
2871 144 1 8.5865 -9.77004 5.07832
3511 176 1 108.656 50.6754 6.29579
2874 144 1 9.51681 -8.54245 5.36599
14635 732 2 50.6531 50.8083 5.12129
14640 732 2 51.3668 50.5279 6.11064
14634 732 2 50.1953 50.7687 5.90155
14639 732 2 51.8149 50.9799 5.44653
599 30 1 72.6493 -9.07638 6.1258
598 30 1 73.2408 -9.49063 5.56289
600 30 1 73.476 -9.17187 6.52858
6388 320 2 74.3372 30.8638 5.6282
6389 320 2 74.7313 30.3893 6.29218
11346 568 1 116.227 -49.0066 5.91304
11347 568 1 115.417 -49.4121 5.49839
11344 568 1 117.25 -48.6777 5.7408
16435 822 2 78.2997 11.5939 5.77999
11345 568 1 116.918 -48.9611 6.52614
7940 397 2 39.1751 71.3897 5.3607
7938 397 2 38.8581 70.5036 5.43031
11867 594 1 60.6413 12.0408 5.66746
11870 594 1 61.18 12.9488 5.40189
11872 594 1 61.0964 12.904 6.54298
4958 248 2 83.0191 53.044 5.86549
11871 594 1 61.8196 13.0961 6.00548
9637 482 1 64.6446 11.8937 6.00989
9640 482 1 63.4438 11.7048 6.49619
4959 248 2 83.4803 52.8224 5.09724
9634 482 1 64.1681 12.5537 6.51642
5794 290 2 5.34105 33.0318 5.75802
9636 482 1 65.4993 11.9642 6.45608
5793 290 2 6.1064 32.4982 5.74868
5792 290 2 6.48211 32.0362 6.42234
8128 407 2 65.8647 -6.92292 6.6631
3509 176 1 107.592 51.8509 5.38787
1897 95 1 -32.8797 -6.72625 6.0948
2875 144 1 9.40307 -7.65914 5.03145
2876 144 1 9.36174 -7.00302 5.75985
2877 144 1 9.46211 -7.25955 6.64503
2879 144 1 8.38629 -7.4251 6.49041