ITEM: TIMESTEP
22000000
ITEM: NUMBER OF ATOMS
17280
ITEM: BOX BOUNDS pp pp pp
0.0000000000000000e+00 2.0000000000000000e+01
0.0000000000000000e+00 2.0000000000000000e+01
0.0000000000000000e+00 1.2000000000000000e+02
ITEM: ATOMS id mol type xu yu zu
322 17 1 46.6005 40.2273 1.28799
6180 309 3 8.50857 40.13 0.861977
1479 74 1 -10.406 41.3197 0.0490559
1478 74 1 -10.3214 40.6143 0.59033
1964 99 1 -46.7842 60.8204 1.38569
1963 99 1 -47.0578 61.0363 0.48383
325 17 1 47.301 42.3122 1.41883
4419 221 3 -10.8722 62.7489 1.443
1480 74 1 -11.0428 41.8044 0.526469
7327 367 3 -27.1353 -78.0783 1.63369
7325 367 3 -27.8428 -77.1931 1.5001
3071 154 1 34.7791 22.202 1.10976
3070 154 1 34.176 22.8182 1.37592
8604 431 3 -43.5771 23.1452 1.66322
239 12 1 37.4364 3.2824 1.37347
240 12 1 37.0363 2.75205 0.730236
1741 88 1 28.2353 4.64215 1.51919
327 17 1 48.3898 43.6563 1.62269
329 17 1 49.3867 44.3267 1.27393
330 17 1 49.9671 44.9596 1.45812
332 17 1 50.9653 44.7352 1.41938
7321 367 3 -28.0562 -75.0976 1.27832
566 29 1 74.8854 44.7137 0.435134
7507 376 3 56.5909 4.57739 0.887194
7504 376 3 58.2084 4.7293 0.868871
238 12 1 37.1902 4.11166 1.59623
331 17 1 50.5477 45.1395 0.727154
568 29 1 74.8532 45.9345 1.23346
567 29 1 74.8397 45.0074 1.28468
570 29 1 73.9315 45.9713 1.6321
565 29 1 75.4202 45.4639 0.237857
564 29 1 75.8928 46.2948 0.342305
563 29 1 76.609 46.2938 0.972181
7508 376 3 56.3759 5.3148 1.39264
7505 376 3 57.7909 5.54561 1.01223
7506 376 3 57.0087 5.34616 0.584394
7502 376 3 58.9073 5.48363 1.56064
7503 376 3 58.7777 5.36576 0.658856
7501 376 3 59.394 6.10772 1.08456
569 29 1 74.3868 46.7151 1.35088
578 29 1 73.7261 47.9561 1.23622
577 29 1 73.5089 47.0521 1.29509
561 29 1 78.1166 47.1071 0.60038
562 29 1 77.4001 46.7105 1.09695
3847 193 1 12.6599 -30.027 1.49824
5036 252 3 71.3889 31.1658 1.64746
5031 252 3 73.7685 31.0957 1.35381
4100 205 1 32.0316 54.6758 1.48531
4768 239 3 8.43118 -24.3482 1.65023
6381 320 3 -27.0751 -4.55554 1.52592
1474 74 1 -10.9312 38.2478 1.02692
1472 74 1 -9.35559 38.2188 1.66117
1462 74 1 -7.48657 37.6445 1.5006
1461 74 1 -7.07659 36.8302 1.48978
321 17 1 46.6062 39.8384 0.449426
6178 309 3 7.74993 38.9794 1.22802
6179 309 3 7.70058 39.8629 1.21735
1475 74 1 -10.9114 39.0749 1.48604
1473 74 1 -10.1782 38.5712 1.45466
1477 74 1 -10.4263 39.7475 0.827576
1965 99 1 -46.8232 59.9559 1.11723
7288 365 3 40.7868 -58.8998 2.70461
7289 365 3 41.5623 -58.5283 2.99116
7290 365 3 41.8605 -59.2831 2.59734
2883 145 1 43.0456 -39.4856 3.00099
2881 145 1 42.5793 -38.5988 3.14993
2123 107 1 44.0726 -18.7958 2.7405
2122 107 1 44.3849 -19.6213 2.69035
2121 107 1 44.9511 -19.1968 2.09835
6175 309 3 6.10427 40.4106 2.28143
4778 239 3 7.98372 -18.7467 2.59039
4780 239 3 8.25087 -19.1319 1.66849
323 17 1 47.1218 40.5448 1.99992
324 17 1 47.1881 41.4033 1.70924
4777 239 3 8.14853 -19.6265 2.71747
4779 239 3 8.65937 -18.4096 2.06768
4776 239 3 8.77552 -19.8339 2.06941
4775 239 3 9.3284 -19.9895 2.74175
4601 231 3 -48.0679 -18.3951 2.33235
4603 231 3 -47.9609 -19.3754 2.88347
4602 231 3 -47.3639 -18.9918 2.32452
7328 367 3 -26.5237 -78.5155 2.10832
7329 367 3 -25.6838 -78.6784 2.4333
7330 367 3 -24.91 -78.918 2.88572
3074 154 1 36.1189 21.3575 2.29052
3075 154 1 36.1948 21.2473 3.27341
4620 231 3 -43.2929 -19.7852 2.80497
7281 365 3 38.2883 -58.7652 2.88388
7282 365 3 39.188 -58.939 2.93901
326 17 1 47.6135 43.145 1.74119
2800 140 1 48.1262 -57.2126 3.14847
4418 221 3 -10.0801 62.6514 1.93069
4411 221 3 -10.9603 63.242 3.18818
4420 221 3 -11.3655 62.7786 2.19774
4409 221 3 -10.3342 61.6824 2.87614
4417 221 3 -9.70328 62.8942 2.72785
3061 154 1 31.4522 23.0738 2.77644
7326 367 3 -27.5246 -77.5174 2.29521
2597 130 1 73.0694 -18.0868 3.20022
3068 154 1 33.6395 22.8735 2.36215
3072 154 1 34.7358 22.2284 2.06352
3073 154 1 35.6328 22.1439 2.22637
7335 367 3 -24.3758 -77.1581 3.32514
8603 431 3 -43.0462 22.4832 2.0033
8602 431 3 -42.1492 22.2599 1.99224
3969 199 1 16.7766 82.414 3.13503
3968 199 1 16.7529 83.2658 2.87714
8601 431 3 -41.2666 22.2913 2.22858
3974 199 1 18.3856 83.1965 2.85635
8140 407 3 79.9439 -37.5749 3.17031
328 17 1 49.2933 43.667 1.90086
4412 221 3 -11.5133 63.9541 2.9636
4413 221 3 -10.6871 64.3578 2.96474
4414 221 3 -9.7559 64.6007 2.94968
4415 221 3 -8.95455 64.2236 2.71078
4416 221 3 -9.48994 63.6707 2.23597
7324 367 3 -27.8213 -76.2834 1.81181
7323 367 3 -27.5962 -75.4343 2.08944
3067 154 1 32.9571 23.4524 2.62739
8610 431 3 -47.0798 24.7068 3.0679
3069 154 1 34.1776 23.5472 1.96373
8607 431 3 -45.5741 23.9501 2.9384
8608 431 3 -46.2868 24.4088 2.5092
3963 199 1 14.0754 84.9448 3.29844
8605 431 3 -44.1137 23.4019 2.3139
8606 431 3 -44.9145 23.3918 2.74388
7509 376 3 56.1592 4.5488 1.79051
7511 376 3 55.1701 4.488 2.27317
3967 199 1 16.5936 84.1523 3.02101
3966 199 1 15.6592 84.1994 3.10538
3976 199 1 18.1395 84.4412 3.13872
3975 199 1 18.4521 83.9532 2.33888
3978 199 1 19.8565 84.5402 3.28968
3979 199 1 19.8397 84.4508 2.31858
3977 199 1 19.0172 84.7529 3.00161
1743 88 1 28.5093 5.32105 3.19283
339 17 1 49.4614 46.3255 2.89255
340 17 1 49.4216 45.535 2.47657
1742 88 1 28.4684 5.12619 2.28362
333 17 1 50.8393 45.1448 2.21211
336 17 1 51.0214 46.2893 2.96719
7322 367 3 -27.5671 -74.5374 1.82802
335 17 1 51.8474 46.3395 2.52587
334 17 1 51.6788 45.4732 2.5146
6498 325 3 72.6132 -33.636 3.3276
8609 431 3 -46.6424 25.3108 2.5597
7512 376 3 54.8085 5.28708 2.63537
571 29 1 73.9895 46.1531 2.60256
7510 376 3 55.6714 5.24234 2.12416
7514 376 3 55.6698 6.60684 1.81541
7513 376 3 55.0322 6.10444 2.26382
235 12 1 36.5078 6.30362 2.22298
234 12 1 35.9803 6.02994 2.95579
236 12 1 37.2325 5.89167 1.85763
237 12 1 37.2954 5.00358 1.8126
8246 413 3 38.2471 25.8607 3.00962
8244 413 3 38.1458 26.4507 1.88809
8245 413 3 38.1303 25.6208 2.14678
3980 199 1 19.6531 85.3774 2.3201
6495 325 3 71.4315 -32.543 2.31367
6494 325 3 70.6878 -32.6045 2.90066
6493 325 3 70.4414 -31.7496 2.5556
6496 325 3 72.2978 -32.3246 2.16386
6497 325 3 72.4717 -32.8502 2.86511
574 29 1 73.2672 48.1404 2.81365
576 29 1 73.3968 46.6728 2.12608
572 29 1 74.0297 46.7709 3.29696
575 29 1 73.7928 47.3803 2.51438
5042 253 3 34.5757 27.8682 2.60937
7515 376 3 55.6396 7.43639 2.31898
7516 376 3 55.6666 8.28849 2.63484
7517 376 3 56.2723 7.88521 3.19993
8241 413 3 37.4461 27.961 2.59895
8242 413 3 38.0242 27.6499 1.87958
8243 413 3 37.4315 27.0111 2.12476
232 12 1 36.7727 6.78248 3.16666
230 12 1 37.9141 7.20601 3.27074
1870 94 1 42.4746 8.86518 3.29646
1876 94 1 43.6837 9.77645 2.98026
1875 94 1 44.4988 9.94823 2.53159
587 30 1 28.0634 -10.9611 3.07617
586 30 1 28.9005 -11.3807 2.91764
6492 325 3 70.7469 -31.0671 3.08734
579 29 1 73.1653 48.5256 1.68028
3846 193 1 11.8061 -30.1195 1.9594
580 29 1 72.5412 48.7843 2.29181
5029 252 3 73.293 29.6979 2.35848
3845 193 1 11.7982 -30.5539 2.73443
5027 252 3 72.624 29.9771 3.25204
5046 253 3 34.3818 29.5762 2.54207
5041 253 3 34.079 28.4149 2.06372
5028 252 3 73.5647 29.9823 3.18794
5047 253 3 35.226 29.5009 2.87674
2264 114 1 36.1065 48.929 3.31119
6240 312 3 18.2857 28.3696 2.67135
1877 94 1 42.8754 10.2458 2.94172
1878 94 1 43.2496 11.1445 3.1082
1879 94 1 42.5191 11.6435 3.05979
10656 533 2 64.3781 31.1938 3.17704
2312 116 1 90.723 51.5674 2.95731
2313 116 1 90.4006 51.2227 2.14523
5034 252 3 72.4772 31.4307 2.59888
3848 193 1 12.8507 -29.1574 1.75586
5033 252 3 73.1721 30.8459 2.78889
5035 252 3 71.6703 30.9902 2.51906
5032 252 3 73.9129 31.052 2.28995
5030 252 3 73.7736 30.2155 1.74381
3856 193 1 14.8737 -29.5114 2.73007
3855 193 1 15.2085 -28.7092 2.61539
1620 81 1 -22.267 110.379 2.99765
660 33 1 98.6714 10.8567 3.29223
1880 94 1 42.2739 12.1597 2.38084
10658 533 2 63.4652 32.2501 2.79433
10657 533 2 64.1764 31.788 2.4651
10659 533 2 63.6157 33.0013 3.30659
2613 131 1 65.7072 12.5262 3.28615
4762 239 3 7.08367 -27.6568 3.30235
4763 239 3 6.79377 -26.7484 3.29086
2315 116 1 89.525 52.7704 1.95499
5038 252 3 71.0424 32.3466 2.21651
5039 252 3 70.4583 32.7476 2.75335
2314 116 1 90.0698 52.037 1.97417
3849 193 1 13.1825 -28.2773 1.83874
5037 252 3 71.7484 31.9551 1.70553
4098 205 1 32.0882 53.255 2.44542
4097 205 1 32.9964 53.3331 2.8132
6976 349 3 11.8267 -7.85912 2.87665
3850 193 1 13.4214 -27.4829 2.25665
3851 193 1 14.3217 -27.7829 1.97101
3852 193 1 14.3994 -27.7146 2.85647
3853 193 1 15.2418 -27.5041 3.09115
3854 193 1 15.736 -28.2391 3.19566
6791 340 3 78.0455 11.79 2.78358
6789 340 3 79.464 12.3689 2.37275
6790 340 3 78.9185 11.9076 2.98796
6788 340 3 79.1665 12.9769 3.01785
220 11 1 3.25579 -5.13322 1.9609
218 11 1 4.25824 -5.59339 3.01124
4765 239 3 8.25043 -25.8343 2.85875
4764 239 3 7.68242 -26.5303 3.11669
2317 116 1 89.4403 53.5599 3.25253
2316 116 1 89.9083 53.5188 2.4517
4767 239 3 8.51229 -25.0931 2.23002
6969 349 3 11.3052 -5.91962 2.2783
6967 349 3 10.121 -5.43014 2.44923
6968 349 3 10.6012 -5.79803 1.71401
6974 349 3 11.3076 -6.64993 3.14683
4099 205 1 32.1023 53.7954 1.73615
6970 349 3 12.0996 -5.80633 2.74628
21 2 1 75.3294 34.4364 2.86002
22 2 1 75.301 33.6016 3.21809
6784 340 3 77.9633 13.854 2.45612
6785 340 3 77.4548 13.4686 3.13911
6783 340 3 77.8631 14.4603 3.11117
6787 340 3 78.8246 13.813 3.13298
2502 126 1 61.3308 15.8511 3.03552
2501 126 1 62.1854 15.6751 3.03412
201 11 1 4.55724 -3.84843 2.40334
202 11 1 4.01893 -3.47696 3.07627
217 11 1 4.93921 -4.99213 2.74348
219 11 1 3.88475 -4.86336 2.54709
215 11 1 5.43129 -3.99134 3.13347
214 11 1 6.12108 -3.95033 2.58859
213 11 1 6.88308 -4.34835 2.95122
4769 239 3 7.92253 -23.8616 2.25448
4766 239 3 8.43203 -24.9317 3.14665
6966 349 3 9.92826 -4.71466 2.9819
2320 116 1 90.9943 55.3498 3.12542
500 25 1 32.038 35.1805 2.25932
499 25 1 32.8995 35.0815 2.58664
6382 320 3 -27.5375 -3.94224 2.03931
6383 320 3 -27.2688 -3.68475 2.8791
6388 320 3 -25.3598 -3.39667 3.19129
6385 320 3 -26.2047 -3.50857 2.36884
6384 320 3 -26.4574 -3.70308 3.25398
2159 108 1 115.577 -24.0883 3.25923
2160 108 1 116.37 -24.2179 2.76252
6393 320 3 -22.223 -3.48131 2.33678
6394 320 3 -21.9957 -4.02039 3.06607
7581 380 3 -0.08823 -3.6199 3.11439
6395 320 3 -21.1165 -3.76054 3.23742
7300 365 3 40.9985 -62.893 2.48161
7299 365 3 40.6649 -63.0824 3.3076
7298 365 3 41.6287 -63.0868 3.25552
5772 289 3 42.7295 36.7696 3.28521
4770 239 3 8.31505 -23.1891 1.74174
4771 239 3 8.01932 -22.3746 2.0979
6844 343 3 29.803 -2.07517 2.30175
6845 343 3 29.0144 -2.62393 2.14101
6846 343 3 29.5993 -3.09667 2.6867
6847 343 3 30.38 -2.95404 3.18826
1464 74 1 -8.59705 37.1031 2.57744
1465 74 1 -9.00039 37.9115 2.69915
1463 74 1 -7.82213 37.5486 2.32099
6387 320 3 -25.841 -2.62021 2.96038
4609 231 3 -46.4918 -21.7291 2.85804
6386 320 3 -26.4788 -2.64966 2.31973
4616 231 3 -45.5257 -21.7405 3.09511
6389 320 3 -24.8029 -3.2369 2.4313
6390 320 3 -23.8866 -3.13759 2.38796
6391 320 3 -23.3369 -2.65485 2.97833
4615 231 3 -44.6177 -21.8217 2.97637
6397 320 3 -21.6895 -3.00371 2.99205
6392 320 3 -22.6103 -2.67738 2.45665
6398 320 3 -21.0449 -2.97001 2.30371
6399 320 3 -20.8015 -2.28248 2.88659
6400 320 3 -20.6673 -2.0844 2.00232
7291 365 3 41.602 -60.14 2.86941
7293 365 3 40.6344 -61.2825 3.09647
2885 145 1 43.3074 -40.6289 3.00593
2886 145 1 42.6019 -41.1965 3.09921
2884 145 1 43.3341 -40.0661 2.2883
7278 364 3 24.5315 -40.709 3.31023
7280 364 3 25.733 -41.5339 2.63047
7279 364 3 25.1242 -40.8474 2.60429
6176 309 3 6.25664 39.5487 1.88209
6174 309 3 6.21937 39.9129 3.03956
6177 309 3 7.19695 39.3927 1.91208
4773 239 3 7.95966 -20.9588 3.10867
4772 239 3 8.18232 -21.5784 2.49449
1476 74 1 -10.3336 39.7052 1.7733
6843 343 3 29.7311 -1.17384 2.56833
6842 343 3 29.2575 -1.61333 3.21708
4774 239 3 8.8509 -20.7145 2.80971
1471 74 1 -9.04366 39.0905 1.6691
1470 74 1 -9.25262 39.4464 2.50512
1466 74 1 -8.34905 38.539 2.99171
4607 231 3 -47.9709 -21.3857 1.99135
4608 231 3 -47.3261 -21.3548 2.63342
4605 231 3 -47.6205 -20.2846 3.04649
4606 231 3 -48.07 -20.5024 2.26659
1966 99 1 -47.1372 59.8055 1.95793
1967 99 1 -46.3878 59.404 2.3912
1968 99 1 -45.5223 59.5561 2.50631
1969 99 1 -45.8923 59.7704 3.32756
4618 231 3 -44.6731 -20.8164 3.21922
4619 231 3 -44.0371 -20.3333 2.85923
2149 108 1 119.936 -20.458 3.09923
2152 108 1 118.471 -21.6567 3.24222
2150 108 1 119.525 -21.2433 2.9504
2148 108 1 120.679 -19.8839 3.40276
7287 365 3 40.5976 -58.8113 3.58118
2146 108 1 120.574 -19.7832 4.63257
2145 108 1 120.386 -18.9176 4.757
5441 273 3 61.3348 41.0117 4.25572
5442 273 3 61.3392 41.6305 4.92238
2882 145 1 42.46 -39.3532 3.70222
2125 107 1 43.3135 -18.5733 4.18398
7273 364 3 22.9928 -39.8646 4.76283
2124 107 1 43.7822 -19.0287 3.56772
6173 309 3 6.25914 40.504 3.74211
6172 309 3 6.34383 41.3728 3.53901
6171 309 3 6.53776 41.1544 4.41965
7267 364 3 25.6704 -39.5669 4.51373
2786 140 1 47.832 -58.6109 3.95759
2785 140 1 48.0404 -59.5021 3.71991
2381 120 1 26.7327 -39.9619 4.6125
7458 373 3 47.6706 20.8049 4.89841
2784 140 1 48.8767 -59.8172 3.76957
4406 221 3 -10.1082 60.5751 4.03893
4408 221 3 -11.0021 61.4197 3.48275
2787 140 1 48.5881 -58.8649 4.46731
4407 221 3 -10.1628 61.4952 3.88016
7460 373 3 49.253 20.3595 4.81065
4405 221 3 -9.31025 60.3806 3.51649
4404 221 3 -8.69837 60.7369 4.13017
4604 231 3 -48.2917 -19.9017 3.54241
2600 130 1 72.6463 -19.5241 3.96437
6860 343 3 32.8872 1.6057 4.28329
4403 221 3 -8.3193 60.0215 4.54473
2599 130 1 73.5073 -19.3727 3.70313
2598 130 1 73.8751 -18.5491 3.4764
7332 367 3 -25.6981 -78.5761 4.40226
7331 367 3 -25.0646 -78.8064 3.79854
6858 343 3 33.4436 1.03375 4.81084
7433 372 3 34.956 -19.7863 4.87757
7438 372 3 37.4348 -19.1528 3.93713
7437 372 3 37.3082 -19.936 4.45598
7439 372 3 37.635 -18.6823 4.68841
7285 365 3 39.6479 -59.3382 4.09202
282 15 1 18.8752 41.4555 4.69086
7283 365 3 38.907 -58.4238 3.70103
7284 365 3 38.7553 -59.3386 3.77539
7286 365 3 39.8324 -58.4327 4.02496
283 15 1 18.5098 40.5809 4.79866
8139 407 3 80.6115 -37.6741 3.76655
8138 407 3 80.6262 -36.8108 4.06545
2144 108 1 120.356 -18.03 4.95934
2810 141 1 81.7463 22.5925 3.67675
2811 141 1 82.1768 21.9252 4.05849
8520 426 3 3.27019 -37.356 4.16688
2812 141 1 82.4999 22.2331 4.88615
2126 107 1 44.171 -18.2532 4.196
6170 309 3 6.87462 41.9626 4.6798
2798 140 1 47.119 -56.6784 4.15947
2799 140 1 47.8336 -57.2121 4.01231
6169 309 3 7.80616 42.053 4.78552
4410 221 3 -10.5739 62.4177 3.35615
1401 71 1 11.4306 -58.1518 3.33524
1403 71 1 10.9268 -58.3293 4.29446
1404 71 1 10.2255 -58.1417 4.84485
4881 245 3 -9.4982 22.7448 4.15934
1402 71 1 11.7919 -58.2033 4.14121
3064 154 1 32.1164 22.9847 4.18233
2593 130 1 73.6021 -17.1056 4.64006
7333 367 3 -25.2987 -77.8222 3.95902
2595 130 1 74.0739 -17.0473 3.36707
2596 130 1 73.6267 -17.7059 3.80218
2594 130 1 74.3461 -16.7389 4.13848
7334 367 3 -24.5367 -78.036 3.4532
3076 154 1 36.2777 21.735 4.05755
3077 154 1 35.9077 22.0592 4.8217
7336 367 3 -23.7381 -77.0356 3.99936
3078 154 1 35.4461 22.8632 4.54142
3971 199 1 17.7781 81.743 3.72071
3970 199 1 17.3769 82.5719 3.78932
3972 199 1 18.2121 82.2938 4.39191
8255 413 3 37.6813 23.2174 4.60139
3973 199 1 18.3373 82.836 3.69745
2143 108 1 119.943 -17.175 4.83654
2142 108 1 119.357 -17.3791 4.12602
8130 407 3 81.3465 -35.5104 4.96434
8131 407 3 80.653 -35.1664 4.48618
2808 141 1 81.5012 23.6994 4.30857
2809 141 1 81.7142 23.4844 3.41949
5470 274 3 42.9979 3.88514 4.86193
8519 426 3 3.86033 -36.6532 4.12358
8518 426 3 4.45812 -36.0817 4.57936
5471 274 3 43.4644 4.65682 4.71642
2797 140 1 46.3758 -56.4019 4.62303
4888 245 3 -13.6051 24.6224 4.19803
4887 245 3 -12.732 24.3846 4.40484
4886 245 3 -12.0208 23.9585 4.01106
4885 245 3 -11.4204 23.5551 4.53991
4884 245 3 -10.9345 24.2809 4.75058
4883 245 3 -10.2955 23.5533 4.76096
4882 245 3 -10.1842 23.3747 3.8704
1744 88 1 28.8192 4.82102 3.86306
3063 154 1 31.599 23.735 3.96588
8615 431 3 -49.1758 23.7396 4.55785
8614 431 3 -49.6994 24.1897 3.92403
8613 431 3 -48.9229 24.6121 3.78431
3062 154 1 30.9443 23.3931 3.448
1746 88 1 30.0299 4.9405 4.6799
3066 154 1 33.3192 23.5446 3.50225
3065 154 1 32.415 23.5346 3.53648
8612 431 3 -48.0548 24.567 3.45934
8611 431 3 -47.2965 24.7399 3.94292
8617 431 3 -48.081 24.2253 4.7185
3962 199 1 13.963 84.6795 4.23744
3964 199 1 14.9667 84.7519 3.53372
3965 199 1 15.1107 83.8703 3.77872
7340 367 3 -24.6417 -75.221 4.41108
7338 367 3 -23.8742 -76.0395 4.24932
7337 367 3 -23.0802 -76.3896 3.87916
8254 413 3 37.4707 24.1118 4.59673
8135 407 3 78.8581 -35.5375 4.07618
8136 407 3 79.2011 -36.2393 3.51499
2141 108 1 118.901 -16.6465 4.49223
8137 407 3 79.8075 -36.3192 4.17073
8132 407 3 80.6261 -34.4308 3.90966
225 12 1 41.0233 6.61834 4.95895
226 12 1 40.19 6.63363 4.5627
221 12 1 43.125 5.79399 3.72205
223 12 1 42.4272 6.33235 4.46779
222 12 1 43.3339 6.51173 4.24725
4895 245 3 -15.4963 25.8376 4.36115
4896 245 3 -15.4591 26.5052 3.66981
4894 245 3 -14.6222 25.7214 4.67712
1754 88 1 26.1603 6.51619 4.5033
1753 88 1 26.5727 5.82692 3.9527
1752 88 1 27.2722 5.55543 4.51309
338 17 1 49.5576 46.4917 3.80822
1745 88 1 29.7151 5.03497 3.79687
4842 243 3 108.539 26.0894 4.84181
337 17 1 50.3803 46.0313 3.57531
6500 325 3 71.5307 -33.7427 3.83547
6644 333 3 70.1306 6.04486 4.85011
6499 325 3 72.1978 -34.3375 3.68461
1599 80 1 114.817 -14.3595 4.54062
1598 80 1 114.264 -13.6477 4.62071
1597 80 1 113.684 -14.3655 4.59951
8250 413 3 36.0517 25.5336 4.20425
8251 413 3 36.2061 25.0119 4.88657
233 12 1 36.0117 6.59658 3.64232
8249 413 3 36.1815 25.0991 3.38783
8247 413 3 37.8525 25.3042 3.58916
8252 413 3 37.0239 25.5442 4.9449
8248 413 3 36.9741 25.5608 3.33958
229 12 1 37.9384 6.45392 3.88734
8133 407 3 79.7413 -34.1905 4.03305
8134 407 3 78.9818 -34.6346 3.78946
228 12 1 38.5552 6.16289 4.53012
8122 407 3 80.3788 -31.6932 3.41292
7111 356 3 21.0563 7.64912 4.11329
7112 356 3 21.5682 6.91596 3.99016
7110 356 3 21.7731 8.16134 3.72718
7113 356 3 22.3522 7.33046 4.20349
545 28 1 81.6715 -32.4041 4.97806
5536 277 3 64.882 67.8349 4.70505
5537 277 3 64.759 67.9281 3.76367
4898 245 3 -16.1158 27.8157 4.7874
4897 245 3 -15.867 27.1637 4.16079
1755 88 1 25.3401 6.9376 4.59078
5538 277 3 65.6552 67.8191 3.86139
590 30 1 26.6051 -11.8021 4.44295
583 30 1 28.1579 -11.9139 4.27522
581 30 1 27.7611 -13.3078 4.99518
582 30 1 27.9315 -12.8283 4.24463
4798 240 3 66.6966 27.2152 4.89974
6489 325 3 69.5734 -32.3928 3.68913
6487 325 3 68.9498 -32.5763 4.43033
6488 325 3 68.787 -32.9129 3.54088
6490 325 3 70.4518 -32.2055 3.8513
599 30 1 31.6109 -13.093 4.87846
597 30 1 30.0886 -12.5055 4.83183
600 30 1 31.8345 -12.265 4.56054
6241 313 3 -26.7846 -33.2309 4.24082
703 36 1 33.2819 8.10931 4.70528
573 29 1 73.4276 47.502 3.43342
5043 253 3 34.6932 27.7336 3.47383
7520 376 3 54.6975 7.36284 4.98489
7518 376 3 55.9237 7.654 4.08627
7519 376 3 55.2522 7.06124 4.31717
231 12 1 37.1771 7.30123 3.77161
6236 312 3 17.3864 27.0692 4.87305
6237 312 3 18.024 27.7362 4.94177
8123 407 3 79.542 -31.946 3.6626
227 12 1 39.3023 6.75285 4.44194
8124 407 3 79.8 -32.058 4.51397
6238 312 3 18.5727 28.1961 4.39286
8121 407 3 80.5883 -30.842 3.35077
7107 356 3 20.3443 8.86952 4.24351
7108 356 3 21.0517 9.17029 4.70367
7109 356 3 21.3733 8.99358 3.86669
1868 94 1 41.7129 9.97104 3.7878
1869 94 1 42.4401 9.48146 3.95617
1871 94 1 42.7859 8.33779 3.97734
1874 94 1 44.6851 9.91974 3.41961
1872 94 1 43.5333 8.88048 3.61307
5534 277 3 64.2262 69.0984 4.85943
1873 94 1 44.4131 9.13118 3.81275
5533 277 3 63.727 69.6408 4.36482
589 30 1 26.624 -11.292 3.67469
5535 277 3 65.0566 68.7327 4.95257
5539 277 3 65.5909 68.691 3.5988
5540 277 3 65.3891 69.3118 4.25402
588 30 1 27.3286 -10.7349 3.61927
584 30 1 28.9232 -11.5344 4.01064
585 30 1 29.6399 -11.4306 3.41157
6491 325 3 71.152 -31.6039 3.7109
3844 193 1 11.6545 -30.5821 3.67275
3843 193 1 10.7763 -30.4112 3.99155
3841 193 1 10.6208 -31.1881 4.91828
3842 193 1 10.7416 -30.2802 4.87178
5025 252 3 72.2588 28.3743 3.60699
5026 252 3 72.7787 29.0822 3.42012
5024 252 3 72.184 28.7197 4.49172
704 36 1 33.1195 9.02455 4.77356
5045 253 3 34.3296 29.2131 3.37177
5044 253 3 34.0541 28.3881 3.64658
5087 255 3 33.6835 -50.1646 4.24818
5088 255 3 34.4616 -50.0191 4.78699
6247 313 3 -25.2945 -31.5385 4.57607
6248 313 3 -24.3689 -31.5719 4.57632
2263 114 1 35.2654 48.6794 3.58844
2262 114 1 35.106 49.377 4.21269
2261 114 1 35.9201 49.5938 4.50611
6239 312 3 18.2122 28.4044 3.56935
2265 114 1 36.6773 48.5158 3.86146
2266 114 1 37.3169 48.3949 4.5015
7106 356 3 19.4792 9.11349 4.36726
1867 94 1 41.3686 10.2945 4.61534
5528 277 3 60.4598 70.8451 4.67121
5529 277 3 61.0612 71.0048 3.94502
5531 277 3 62.3715 70.6087 4.10537
5532 277 3 63.1923 70.2766 3.97662
5530 277 3 61.8594 70.9425 3.4178
1865 94 1 43.0379 10.2501 4.98814
3594 180 1 -18.0154 31.3185 4.68647
3598 180 1 -16.8428 31.4269 4.77385
1861 94 1 44.7782 10.178 4.40288
1864 94 1 43.8405 10.742 4.94568
10655 533 2 64.8539 31.0845 3.93147
3597 180 1 -16.3423 31.2172 4.003
2302 116 1 85.8497 50.5281 4.70865
2303 116 1 86.5984 51.0514 4.67606
10654 533 2 65.3296 31.5764 4.58728
8441 423 3 26.9576 10.0229 4.42135
8442 423 3 27.6495 10.6857 4.54567
2305 116 1 87.8301 51.6211 4.81911
8443 423 3 28.491 10.9844 4.24578
8444 423 3 29.002 11.589 3.71578
2308 116 1 89.2509 51.304 4.89498
6980 349 3 10.3609 -9.38831 4.51287
2311 116 1 90.0897 51.4166 3.64135
6979 349 3 10.3263 -9.61605 3.62393
6978 349 3 11.1966 -9.25048 3.44222
6977 349 3 11.644 -8.41937 3.58917
5083 255 3 31.6751 -48.8743 4.79113
5085 255 3 32.532 -49.7452 4.32447
5084 255 3 32.2459 -48.9048 4.09847
5086 255 3 33.3559 -49.3036 4.39858
5048 253 3 34.9752 30.1204 3.62578
3858 193 1 14.397 -29.1759 4.32068
3857 193 1 14.2979 -29.1684 3.33565
5089 255 3 35.1992 -49.5096 4.83052
5050 253 3 36.4124 30.4277 4.08552
5049 253 3 35.6124 30.8106 3.7018
1619 81 1 -22.4569 111.123 3.49003
1617 81 1 -22.4007 110.012 4.75641
1618 81 1 -22.1467 110.503 4.07614
27 2 1 76.8922 31.3184 4.37057
659 33 1 98.8887 10.9207 4.16507
5527 277 3 59.6857 71.217 4.99968
3586 180 1 -19.7535 32.0426 3.95017
3595 180 1 -17.7553 31.9687 4.1017
7587 380 3 2.70204 -6.75796 4.39121
3596 180 1 -16.8507 31.9446 3.73697
7588 380 3 3.09275 -7.53145 4.63696
2611 131 1 64.2035 12.166 4.16586
2612 131 1 64.8338 12.5151 3.63241
10652 533 2 65.4114 32.8837 4.43869
2615 131 1 66.5351 12.7992 4.18649
2614 131 1 66.2513 11.95 3.8004
10653 533 2 65.9282 32.2234 4.92484
8447 423 3 28.0206 12.9115 4.73521
4761 239 3 7.81774 -27.5919 3.91605
3121 157 1 28.4964 -46.7808 3.72475
8445 423 3 29.1621 12.1786 4.37797
7919 396 3 69.54 -6.69015 4.34849
5040 252 3 70.3668 33.0756 3.64063
2310 116 1 90.2827 51.9141 4.35912
6975 349 3 11.1822 -7.5339 3.46716
7920 396 3 70.4029 -6.80394 4.59089
4096 205 1 33.1362 52.6584 3.43733
6973 349 3 12.0574 -6.80158 3.61577
4095 205 1 32.6001 52.5887 4.15213
4094 205 1 31.8364 52.4377 4.68452
3859 193 1 14.4882 -28.3235 4.34368
5095 255 3 34.5264 -47.3026 4.16572
3860 193 1 13.6651 -27.831 4.4718
5094 255 3 35.3752 -47.6699 4.21509
5093 255 3 35.2578 -47.0936 4.91949
6792 340 3 78.1793 12.0856 3.62258
26 2 1 77.1493 32.1475 4.02019
6793 340 3 78.279 11.7712 4.46942
6786 340 3 78.2185 13.056 3.4156
25 2 1 76.775 32.9581 4.26369
6796 340 3 77.8578 12.9795 4.63625
3585 180 1 -20.6659 31.9331 3.94592
3587 180 1 -20.1003 32.8722 3.84307
3584 180 1 -21.1031 32.7195 4.07957
3583 180 1 -20.4345 32.7386 4.7171
7583 380 3 0.653536 -5.0811 3.77344
7584 380 3 0.570583 -6.01317 3.66815
3588 180 1 -19.6097 33.3448 4.44373
7585 380 3 1.50144 -6.02379 3.51037
7593 380 3 1.4995 -5.49267 4.78957
7586 380 3 1.83918 -6.52248 4.19047
246 13 1 62.3708 -5.16098 4.2915
245 13 1 62.997 -5.73425 3.97808
10660 533 2 64.1482 33.4516 3.93776
244 13 1 63.422 -5.4346 4.74289
243 13 1 64.2531 -5.598 4.98187
5779 289 3 46.1308 34.5698 4.71135
5778 289 3 45.217 34.6744 4.9158
5780 289 3 46.9416 34.1958 4.52401
3122 157 1 27.7774 -46.2768 4.10055
3124 157 1 29.3863 -45.6583 4.2942
3123 157 1 28.5009 -45.6722 4.13492
3127 157 1 30.3315 -45.6502 4.70529
3128 157 1 31.1529 -45.2454 4.39237
2318 116 1 90.1308 54.1615 3.46978
2319 116 1 90.9751 54.5098 3.39539
7915 396 3 71.1988 -6.24527 4.97555
6971 349 3 12.25 -5.73335 3.65331
6972 349 3 12.2885 -6.33375 4.35476
7913 396 3 72.2777 -5.43642 4.8686
5096 255 3 34.3282 -46.3642 4.15945
5097 255 3 33.4028 -46.2694 4.33781
24 2 1 76.5373 33.6849 3.69757
23 2 1 75.6858 33.7493 4.05162
6797 340 3 77.6428 13.7653 4.22136
93 5 1 38.5348 -25.4645 4.56391
94 5 1 39.2488 -25.9473 4.3861
95 5 1 39.3038 -25.0784 4.14412
7582 380 3 0.435501 -4.1574 3.65485
7594 380 3 1.21189 -4.62062 4.71424
2503 126 1 61.72 15.8073 3.88652
2504 126 1 62.1536 16.055 4.65542
5774 289 3 42.8722 35.7872 3.99543
5775 289 3 43.2038 35.5868 4.79077
5777 289 3 44.8483 35.41 4.49067
5773 289 3 43.4097 36.4859 3.89986
5776 289 3 43.9288 35.292 4.32597
7642 383 3 -35.4031 16.4876 3.9546
216 11 1 5.58213 -4.84787 3.34944
2900 145 1 45.6332 -43.9268 4.42778
212 11 1 7.6923 -4.28486 3.44954
211 11 1 7.38278 -3.41139 3.34994
8341 418 3 47.5745 16.21 4.27692
6965 349 3 9.39999 -4.53988 3.6654
48 3 1 49.0266 35.4626 4.89809
49 3 1 49.3364 36.2749 4.55668
3129 157 1 30.7187 -44.6141 4.87607
6964 349 3 10.0873 -3.96143 3.48515
6962 349 3 11.3344 -4.01869 4.09719
6963 349 3 10.4957 -3.61991 4.20526
498 25 1 32.9472 35.1908 3.50553
496 25 1 32.5024 36.0165 3.94232
497 25 1 32.0241 35.3735 3.55469
6961 349 3 11.8272 -4.50876 4.68483
495 25 1 33.0022 35.9329 4.74764
3139 157 1 34.1468 -43.8444 4.96932
3140 157 1 34.6206 -43.8215 4.17695
7025 352 3 96.1668 55.9123 4.35325
7024 352 3 96.5511 56.5127 4.91014
7027 352 3 96.0315 55.0369 4.84302
7026 352 3 95.3696 55.4932 4.4102
6782 340 3 77.9289 15.1404 3.70941
6781 340 3 78.2209 15.6917 4.40855
2520 126 1 57.0583 16.5992 3.56193
2517 126 1 57.7895 16.6087 4.80426
2519 126 1 57.248 15.9439 4.1507
96 5 1 39.345 -24.1559 4.24883
97 5 1 39.8868 -23.4582 4.47777
7297 365 3 41.4152 -62.8846 4.15088
7296 365 3 41.5479 -61.9557 4.29349
99 5 1 40.5894 -21.9511 4.74652
98 5 1 40.3191 -22.698 4.35455
7295 365 3 40.9676 -62.1818 3.54032
7294 365 3 40.2422 -61.7452 3.80051
5771 289 3 42.7839 37.111 4.09961
5770 289 3 42.9493 37.9938 3.95743
5769 289 3 42.7956 37.7755 4.89076
205 11 1 4.41132 -2.04592 4.58369
204 11 1 3.89387 -2.65759 4.30137
203 11 1 3.61526 -2.61469 3.4124
7641 383 3 -35.1793 17.2604 3.53293
7643 383 3 -35.0756 16.8997 4.70403
206 11 1 5.10368 -1.91429 3.98409
207 11 1 5.86462 -2.44566 4.12285
208 11 1 6.42153 -3.09424 3.79135
209 11 1 7.08949 -2.84756 4.32361
8342 418 3 47.9735 16.7755 4.89384
210 11 1 7.50902 -2.53577 3.57152
7262 364 3 27.7753 -41.6942 4.26832
7263 364 3 26.8809 -41.8062 4.00138
50 3 1 49.3676 36.9902 3.95746
52 3 1 49.3489 38.2651 4.83572
51 3 1 49.4907 37.8858 3.99799
8343 418 3 48.3733 17.2566 4.21946
8344 418 3 48.8799 17.3547 4.95104
6848 343 3 31.0102 -2.52354 3.73105
6849 343 3 31.8637 -2.26929 3.54718
59 3 1 53.0423 37.7627 4.58931
57 3 1 51.8439 36.8261 4.83448
58 3 1 52.4594 37.1552 4.1733
6850 343 3 31.9155 -2.08279 4.46385
60 3 1 53.4393 37.281 3.88851
4613 231 3 -45.2326 -22.7164 4.48448
4612 231 3 -45.6459 -21.9374 4.33477
2158 108 1 115.735 -23.1703 3.36983
2157 108 1 116.148 -22.4965 3.9056
4614 231 3 -44.8276 -22.3259 3.76324
7023 352 3 95.6705 56.7214 4.71668
2156 108 1 116.914 -22.4137 4.40438
2155 108 1 116.804 -21.763 3.75102
2154 108 1 117.727 -21.7226 3.79326
8141 408 3 58.3263 -61.9048 4.54001
6396 320 3 -21.5767 -3.23814 3.87871
8142 408 3 59.1322 -62.3002 4.42634
7292 365 3 41.4749 -60.9079 3.33772
2888 145 1 41.5343 -40.653 4.41033
2147 108 1 120.333 -20.4647 4.04478
2887 145 1 42.3127 -40.9317 3.92254
7274 364 3 23.1726 -40.0892 3.9017
7275 364 3 23.2614 -40.875 4.38913
2889 145 1 42.3572 -40.6015 4.89438
7277 364 3 24.566 -40.5245 4.2444
7276 364 3 24.0298 -40.783 4.95828
7266 364 3 25.4447 -40.4066 4.86938
7265 364 3 25.9931 -41.0218 4.33786
7264 364 3 26.872 -40.899 3.95183
7261 364 3 28.6075 -41.4876 4.00933
2782 140 1 49.0051 -60.7468 4.60486
2783 140 1 49.2897 -60.6725 3.70925
1468 74 1 -8.8739 38.7327 3.87334
6841 343 3 30.1571 -1.54665 3.36962
1469 74 1 -9.28274 39.3769 3.43966
4401 221 3 -9.68441 59.8252 4.78331
53 3 1 50.2589 38.4594 4.55592
1467 74 1 -7.97162 38.9199 3.76455
4610 231 3 -46.6902 -21.3026 3.65408
4611 231 3 -46.391 -21.4618 4.49938
4617 231 3 -45.3659 -21.0993 3.76133
2585 130 1 74.6901 -20.9423 4.81018
1970 99 1 -45.1337 59.9831 3.806
1971 99 1 -44.5896 59.4974 4.38954
2584 130 1 75.2765 -21.5369 4.42953
8148 408 3 57.3998 -60.9853 4.48061
2153 108 1 118.169 -20.9317 3.71723
8146 408 3 58.2844 -61.0141 4.85927
2151 108 1 119.148 -21.3669 3.77595
8145 408 3 58.9485 -60.5364 4.46336
5454 273 3 61.5015 40.991 6.44181
5449 273 3 60.2062 40.267 5.70669
5452 273 3 61.4583 40.0081 5.46527
5453 273 3 61.1356 40.8734 5.58357
5446 273 3 60.3466 41.409 6.38324
3923 197 1 80.7548 40.0931 6.57707
7272 364 3 22.2229 -39.5321 5.21512
7271 364 3 22.66 -38.7338 5.17266
5455 273 3 62.2656 40.4397 6.60663
5456 273 3 62.6956 41.2488 6.42505
7270 364 3 23.5398 -39.0012 5.19154
7269 364 3 24.3962 -38.791 5.46013
5457 273 3 63.6003 41.1394 6.52285
2224 112 1 64.7001 40.2233 6.65301
7268 364 3 25.1903 -39.2087 5.16981
2225 112 1 65.0111 41.069 6.62176
2226 112 1 65.9109 41.2155 6.33841
2227 112 1 65.8479 40.3131 6.12719
7457 373 3 47.3524 20.4949 5.70622
2792 140 1 46.7365 -58.6408 5.72989
2791 140 1 47.3167 -58.4157 6.42058
7456 373 3 46.8948 20.4073 6.55247
7454 373 3 47.9194 20.667 6.65633
2790 140 1 48.0398 -58.5592 5.82813
7459 373 3 48.4238 20.3308 5.20241
7452 373 3 49.0297 20.9644 6.30914
7451 373 3 49.9109 21.2534 6.00426
6611 331 3 70.8745 -19.9091 5.93431
6613 331 3 71.2867 -19.0703 6.18095
6612 331 3 71.2385 -19.3299 5.28344
2589 130 1 72.067 -18.6782 5.34271
2588 130 1 72.4797 -19.4693 5.03825
6614 331 3 72.0203 -18.6648 6.561
6857 343 3 33.3305 0.846968 5.66025
6615 331 3 72.949 -18.8824 6.5402
674 34 1 72.3348 40.209 6.22279
6856 343 3 33.586 0.15304 6.26016
7432 372 3 34.7257 -19.8014 5.74143
7431 372 3 34.4301 -19.0152 6.17772
7435 372 3 36.2765 -18.9535 5.27468
7434 372 3 35.3765 -18.9342 5.08003
1974 99 1 -44.216 60.079 5.58667
1975 99 1 -43.6908 60.4688 6.29108
7425 372 3 35.9493 -18.4054 6.10358
7436 372 3 37.1364 -19.3758 5.16989
7423 372 3 37.0297 -18.4579 6.55476
7422 372 3 37.8718 -18.5552 6.25814