ITEM: TIMESTEP
22000000
ITEM: NUMBER OF ATOMS
17280
ITEM: BOX BOUNDS pp pp pp
0.0000000000000000e+00 2.0000000000000000e+01
0.0000000000000000e+00 2.0000000000000000e+01
0.0000000000000000e+00 1.2000000000000000e+02
ITEM: ATOMS id mol type xu yu zu
10562 529 2 32.3655 42.538 1.65563
10561 529 2 33.2016 42.8485 1.45602
2080 104 1 13.2546 -36.098 1.31553
9002 451 2 49.2771 -19.1214 3.21081
10568 529 2 31.2261 40.2381 2.98678
9001 451 2 50.1208 -18.9339 2.86143
10567 529 2 31.8483 40.7995 3.25059
10564 529 2 33.0071 41.2005 2.62232
2074 104 1 12.4577 -36.9029 2.76896
2075 104 1 13.1692 -37.3921 2.52546
10563 529 2 32.3886 41.7519 2.16051
2076 104 1 14.0519 -37.2356 2.33476
5742 288 2 -23.448 22.6726 2.99748
5745 288 2 -21.6399 22.7546 2.84183
7594 380 2 9.60889 -36.4203 3.31678
2064 104 1 9.5941 -35.4645 2.64568
2072 104 1 11.5719 -36.3675 3.10808
2063 104 1 10.4502 -35.1487 2.5488
2073 104 1 12.1388 -36.0702 2.45935
5287 265 2 13.3305 43.6079 3.27297
2079 104 1 13.1787 -35.6945 2.12694
2078 104 1 14.0988 -35.6743 2.29334
2077 104 1 14.4775 -36.4497 2.61105
5293 265 2 14.7977 44.6686 3.21704
5291 265 2 15.2761 43.4428 3.24642
5292 265 2 15.6255 44.2814 3.04581
5747 288 2 -21.9894 24.503 3.00026
5741 288 2 -23.019 23.3514 2.55026
5746 288 2 -21.5684 23.6813 2.96806
5748 288 2 -21.1266 24.4764 3.17156
1922 97 1 45.6446 -53.8887 3.32214
8200 410 2 29.4556 -34.1572 3.16891
2062 104 1 11.2713 -34.9235 2.16639
10798 540 2 -8.9145 6.63309 2.84281
2061 104 1 12.1068 -34.9151 2.63322
5295 265 2 15.1093 46.226 3.32919
8197 410 2 27.7802 -33.1947 3.3103
8198 410 2 28.696 -33.1862 3.26026
2558 128 1 -30.3601 -31.9356 3.27389
2557 128 1 -29.4724 -31.8159 3.06315
10799 540 2 -8.85625 7.41755 2.40041
10800 540 2 -8.08224 7.88669 2.48667
4322 217 2 72.6682 -12.5116 3.26818
217 11 1 -25.0332 -72.3067 2.77533
218 11 1 -24.1803 -72.649 2.60012
219 11 1 -23.5577 -72.7778 3.26383
1119 56 1 -2.68246 -11.9109 2.99951
4334 217 2 77.7012 -12.9374 2.88615
1120 56 1 -2.98404 -12.4293 2.3003
3880 194 1 6.82037 -30.1167 3.15317
9602 481 2 9.26166 -30.3577 2.47172
9601 481 2 9.21767 -31.2882 2.53454
216 11 1 -24.7603 -71.5191 3.2605
4337 217 2 78.1283 -11.1423 3.07732
2655 133 1 -59.7868 10.0015 3.2985
7249 363 2 2.54677 -9.20338 3.23524
1301 66 1 7.46271 10.7794 2.96288
9603 481 2 9.42252 -29.9394 3.28861
3006 151 1 -9.3373 -88.5988 2.95058
3005 151 1 -8.62172 -89.1188 3.27873
6559 328 2 -1.66229 11.6435 3.13081
7257 363 2 4.18566 -6.70279 3.17258
7477 374 2 -31.8824 -67.8316 2.90821
3011 151 1 -10.7292 -86.8702 3.18648
7478 374 2 -31.0155 -67.8789 3.19609
7442 373 2 11.6389 12.3661 3.33015
3008 151 1 -9.95009 -87.5609 3.32748
6560 328 2 -1.61486 12.5345 2.88507
1648 83 1 -0.170282 -46.6749 3.17317
7259 363 2 4.36772 -5.10479 3.16249
7260 363 2 3.44109 -5.02492 3.11182
3013 151 1 -10.2496 -85.1284 2.8656
3012 151 1 -10.5407 -85.9939 3.11653
7454 373 2 10.7622 14.5123 3.11117
7451 373 2 11.8758 14.2585 3.28136
4940 247 2 -78.6851 -44.2797 3.06503
3014 151 1 -10.9114 -84.6947 3.32432
9007 451 2 48.9352 -22.7874 3.14556
6321 317 2 21.0062 -60.3609 2.77493
6323 317 2 21.7419 -61.1638 3.29875
9003 451 2 49.3118 -20.0366 3.24356
6338 317 2 21.3641 -58.5038 4.32054
1762 89 1 0.635936 -19.9176 4.72845
6339 317 2 22.2302 -58.9004 4.21241
408 21 1 -58.244 -79.9362 4.60398
401 21 1 -55.1464 -79.3561 3.45022
5689 285 2 4.51889 0.735547 4.79898
5690 285 2 4.62668 1.62029 4.53292
358 18 1 25.8247 -19.1913 4.85451
357 18 1 26.6501 -19.5752 4.8895
7598 380 2 9.93037 -38.7025 4.10105
2373 119 1 69.8344 -19.8525 4.45975
7600 380 2 8.59545 -39.1505 4.50571
7599 380 2 9.41466 -38.817 4.84731
13397 670 4 -8.34142 1.27137 4.93883
2374 119 1 70.2571 -19.6749 3.6568
5892 295 2 30.5678 -58.6916 4.87858
13396 670 4 -8.42172 0.444824 4.51763
10566 529 2 32.5629 40.2989 3.51427
13395 670 4 -7.48701 0.41026 4.52709
5283 265 2 13.0581 41.3306 4.82682
5284 265 2 12.4281 41.6222 4.23792
10565 529 2 33.3339 40.8622 3.43397
13391 670 4 -6.12436 0.359517 4.85258
13392 670 4 -5.99473 0.0566457 4.01681
13390 670 4 -5.99923 1.09678 4.30745
13386 670 4 -4.14653 0.348364 4.22045
13388 670 4 -4.84737 1.62276 4.39869
13387 670 4 -4.06745 1.24954 4.09731
3420 171 1 57.8288 40.3276 4.58914
3419 171 1 58.11 41.1803 4.75894
3418 171 1 57.2243 41.2358 4.84776
1763 89 1 -0.229422 -19.7486 4.48611
1764 89 1 -1.13709 -19.5711 4.71207
1765 89 1 -0.500588 -18.9705 4.99361
1768 89 1 0.211777 -16.8125 4.49508
1767 89 1 0.664481 -17.6335 4.65724
9019 451 2 47.667 -17.8677 4.83397
1540 77 1 8.74971 -18.3143 3.63772
1539 77 1 9.50918 -17.7875 3.89574
1538 77 1 9.70017 -17.638 4.74752
9020 451 2 48.5939 -17.7066 4.81602
7595 380 2 10.0898 -36.9394 3.99607
7597 380 2 10.5746 -38.1946 3.66449
7596 380 2 10.8153 -37.2856 3.55788
13400 670 4 -9.17233 2.37255 4.70332
13398 670 4 -8.6773 1.69378 4.19505
2071 104 1 11.8271 -37.1822 3.48643
5286 265 2 12.9214 43.065 3.84459
5285 265 2 13.0978 42.2909 4.24857
13399 670 4 -8.3039 2.49363 4.48427
13389 670 4 -5.6521 1.76968 4.82442
5289 265 2 14.2324 42.333 4.05019
5288 265 2 14.0696 43.1344 3.61919
3763 189 1 73.6163 23.2358 4.87431
5290 265 2 15.0385 42.7469 3.78009
1235 62 1 16.5475 2.7003 4.8559
1236 62 1 15.5941 2.72226 4.79078
5743 288 2 -23.1039 22.9994 3.79081
5744 288 2 -22.1609 23.0249 3.60118
1234 62 1 17.3998 2.68241 4.62063
1769 89 1 -0.619999 -17.0935 4.78507
1770 89 1 -0.606172 -16.7325 3.8486
2975 149 1 -15.2134 -36.498 4.937
2976 149 1 -15.7975 -35.8001 4.86085
2974 149 1 -14.4086 -36.0516 4.98533
2973 149 1 -14.1176 -35.4185 4.35954
7590 380 2 7.40631 -35.8101 4.23128
7591 380 2 8.01229 -36.1504 4.81916
7588 380 2 6.6947 -35.3731 4.94031
7592 380 2 8.55439 -35.8511 4.10503
7593 380 2 8.99427 -36.6314 3.99205
2065 104 1 9.27828 -35.1798 3.46946
2067 104 1 9.96402 -35.8225 4.26327
2070 104 1 11.5854 -36.6159 4.16891
2069 104 1 11.3938 -35.9456 4.76449
2066 104 1 10.1761 -35.4399 3.49356
2068 104 1 10.8936 -36.0736 4.00906
5884 295 2 30.7914 -55.1682 4.87514
10795 540 2 -8.04799 4.37437 3.78039
10794 540 2 -7.24566 4.01332 4.18899
10793 540 2 -7.57005 3.43879 4.79525
1521 77 1 12.8136 -15.2276 3.46666
1240 62 1 14.6757 4.51327 4.17394
3764 189 1 74.1034 24.044 4.84854
1239 62 1 15.5734 4.51634 4.1981
1238 62 1 15.8774 3.70498 4.61364
1237 62 1 15.0198 3.38277 4.50411
1773 89 1 -2.52396 -15.1351 4.30606
6190 310 2 -42.4753 -76.3326 4.93441
1772 89 1 -2.12803 -15.898 4.07062
1774 89 1 -1.85419 -15.1086 4.91171
1771 89 1 -1.28059 -16.1915 4.30196
5749 288 2 -21.097 24.8143 4.06779
5750 288 2 -20.8066 24.6676 4.94948
1221 62 1 21.3436 6.32468 4.66918
1222 62 1 21.1511 5.667 4.06291
1223 62 1 20.8588 5.27632 4.84312
7949 398 2 60.3612 26.5685 3.80306
1921 97 1 46.0199 -53.8005 4.17447
2972 149 1 -14.6714 -34.6844 4.42393
7589 380 2 7.09677 -34.9434 4.20129
8195 410 2 27.3876 -33.6713 4.15909
8196 410 2 27.8806 -34.1405 3.52469
8199 410 2 28.8914 -33.9142 3.8735
5881 295 2 29.6653 -53.7671 4.83556
10797 540 2 -9.005 5.90961 3.42404
10796 540 2 -8.49902 5.16294 3.47353
2554 128 1 -29.8009 -33.3693 3.95242
5882 295 2 30.1173 -54.5039 4.65831
5883 295 2 30.6976 -54.757 4.06578
2552 128 1 -28.7759 -33.719 4.3526
1522 77 1 12.8496 -14.3489 3.62522
1525 77 1 12.4324 -13.825 4.82373
1524 77 1 13.2902 -13.5281 4.55117
5294 265 2 14.5207 45.5303 3.52091
1523 77 1 13.5505 -14.346 4.239
1665 84 1 -5.19908 -14.4705 4.6412
5297 265 2 16.3663 45.7862 4.05824
5296 265 2 15.5884 45.4701 3.65426
5298 265 2 16.6172 45.3505 4.79842
1664 84 1 -4.50441 -14.9165 4.9623
1666 84 1 -4.90505 -13.6285 4.32873
4332 217 2 77.1444 -13.549 3.64518
4331 217 2 77.1235 -13.3419 4.54621
1775 89 1 -1.95717 -14.2088 4.77507
1776 89 1 -1.1328 -13.9783 4.45779
7948 398 2 59.8987 26.0677 4.4347
7950 398 2 60.5519 27.2655 4.3583
2924 147 1 61.701 -12.117 4.88569
2929 147 1 62.9586 -11.9634 4.47325
2930 147 1 63.4713 -12.7222 4.50014
8186 410 2 24.8621 -31.6847 4.22973
1925 97 1 44.5201 -53.3248 4.81727
8188 410 2 26.6274 -31.9024 3.88187
8187 410 2 25.7751 -31.6797 4.08459
1923 97 1 45.2741 -53.083 3.60804
1924 97 1 45.101 -52.7484 4.44383
8189 410 2 27.3192 -32.4392 4.06475
8190 410 2 28.0008 -32.9929 4.47393
2560 128 1 -30.9062 -31.892 4.19755
2555 128 1 -29.7591 -32.7162 4.63236
2556 128 1 -29.587 -32.1291 3.94784
2553 128 1 -28.9509 -33.0077 3.83823
10782 540 2 -8.85302 7.62829 4.70908
4321 217 2 72.3144 -12.8804 4.05505
4323 217 2 72.7048 -11.6841 3.66284
212 11 1 -27.0076 -72.0549 4.91944
10781 540 2 -8.31483 8.00387 4.08554
4326 217 2 74.4797 -12.7704 4.36038
4324 217 2 73.4982 -12.1653 3.4639
4325 217 2 74.1563 -12.7997 3.47328
215 11 1 -25.4557 -71.6996 3.88288
4327 217 2 75.1692 -12.7269 3.71984
220 11 1 -24.0215 -73.2667 3.95733
4328 217 2 75.8479 -12.0919 3.84222
1667 84 1 -4.56993 -12.9474 4.81509
4329 217 2 76.6004 -12.517 4.26628
2643 133 1 -63.6446 8.23976 4.92696
4333 217 2 77.419 -12.6921 3.74869
1118 56 1 -2.49248 -11.7144 3.87005
7944 398 2 57.9189 27.4333 4.63532
4336 217 2 78.6465 -11.7962 3.45848
4335 217 2 78.3382 -12.6264 3.46364
1777 89 1 -0.928796 -13.1866 4.02506
1778 89 1 -0.999246 -12.3412 4.41586
1779 89 1 -0.310576 -11.6823 4.2416
7947 398 2 59.8 26.8747 4.92516
7247 363 2 1.58016 -10.3316 3.64657
7246 363 2 0.87462 -10.5741 4.18412
2925 147 1 61.9564 -11.412 4.24612
2926 147 1 62.6887 -11.334 3.7115
7248 363 2 2.40614 -10.0036 3.72674
7954 398 2 61.7392 29.805 4.7066
7956 398 2 62.883 29.8911 4.79709
2927 147 1 63.4366 -10.7731 3.6954
8185 410 2 24.6877 -31.0738 3.63653
2928 147 1 63.6594 -11.567 4.02973
1931 97 1 44.316 -50.6549 4.73519
8184 410 2 25.6063 -30.8025 3.61848
1930 97 1 45.2045 -50.8425 4.60925
3878 194 1 6.44336 -30.3423 4.26338
3877 194 1 6.41285 -31.1234 4.73172
6700 335 2 8.20141 9.82932 4.94882
3879 194 1 6.97694 -30.8647 3.6711
3876 194 1 7.32337 -31.1854 4.726
6699 335 2 8.41995 9.09462 4.44912
6698 335 2 8.36577 9.49781 3.60389
2559 128 1 -30.6556 -31.1978 3.672
9605 481 2 10.3326 -30.7356 3.41701
9607 481 2 10.4972 -31.0848 4.90858
9606 481 2 10.3495 -30.4219 4.27402
3003 151 1 -8.17214 -90.0003 4.55089
213 11 1 -26.2934 -71.6517 4.52632
214 11 1 -25.648 -70.9894 4.42203
11503 576 2 33.4527 9.80453 3.5268
2641 133 1 -64.4834 8.94674 4.54354
2642 133 1 -63.5619 9.05233 4.53957
1116 56 1 -3.15144 -10.3337 3.60947
4338 217 2 77.9708 -10.5869 3.81227
1117 56 1 -3.22469 -11.2377 3.59716
2644 133 1 -62.7039 8.35195 4.8283
2645 133 1 -62.7432 9.26322 4.96231
2657 133 1 -60.918 8.92768 3.9675
2656 133 1 -60.1443 9.18821 3.53344
2658 133 1 -61.5417 8.75616 4.63699
1780 89 1 -0.389722 -10.998 4.95618
2659 133 1 -61.5735 9.66167 4.74516
2654 133 1 -59.0551 10.5417 3.61915
2653 133 1 -59.839 10.6976 4.0451
7245 363 2 0.568433 -9.97466 4.86145
7250 363 2 2.41392 -8.33681 3.47147
1656 83 1 2.36439 -49.0476 4.20195
1655 83 1 2.06701 -48.6888 4.94515
1933 97 1 43.6444 -49.5602 3.93836
1932 97 1 44.4883 -49.8683 4.24149
1934 97 1 43.5492 -49.0282 4.66142
8183 410 2 25.5442 -29.8948 3.93095
8182 410 2 25.7105 -29.905 4.84197
8181 410 2 26.3316 -29.2464 4.79177
6697 335 2 8.01935 10.2412 4.04448
1302 66 1 7.81803 11.2922 3.6784
6696 335 2 7.8149 10.8184 4.70239
1303 66 1 7.02325 11.602 4.1138
6695 335 2 8.78021 10.8194 4.59752
737 37 1 -10.2715 -29.4999 4.35291
736 37 1 -10.2823 -28.6984 4.8089
9604 481 2 10.3417 -29.828 3.35231
738 37 1 -9.58343 -29.2637 4.91098
3007 151 1 -9.7824 -88.395 3.74033
3004 151 1 -8.05452 -89.1875 4.08908
11502 576 2 32.7836 10.4046 3.57206
1216 61 1 -27.2049 -8.47403 4.12775
11501 576 2 32.9828 10.1762 4.43333
11504 576 2 33.8964 10.0526 4.31163
11505 576 2 34.2484 10.6739 3.76108
11506 576 2 34.9193 11.2051 4.05093
1219 61 1 -25.8736 -8.80196 4.92683
1114 56 1 -3.56634 -8.92564 4.02255
1113 56 1 -4.06954 -8.61149 4.71913
1115 56 1 -3.2159 -9.71984 4.30531
6557 328 2 -2.55877 10.6258 3.71753
6558 328 2 -2.55122 11.4636 3.35574
6556 328 2 -2.5874 11.3407 4.37894
4339 217 2 78.6281 -9.94712 3.79377
4340 217 2 79.3733 -9.9749 4.34133
2652 133 1 -60.7505 10.9048 3.9007
2651 133 1 -61.5956 11.059 4.2318
1646 83 1 0.0766132 -47.6704 3.6135
6544 328 2 0.510903 12.1766 4.83497
6545 328 2 0.502226 13.0253 4.52588
1647 83 1 0.610534 -46.9264 3.53878
1652 83 1 1.61615 -47.2109 4.86407
7252 363 2 2.59529 -7.25743 3.45038
7253 363 2 2.33006 -6.81087 4.19773
7251 363 2 2.02992 -7.74584 3.99899
1657 83 1 2.87061 -48.2762 4.35615
7255 363 2 3.09519 -7.13811 4.68209
1658 83 1 3.46106 -47.7119 3.9283
1660 83 1 4.7816 -48.2106 4.55303
7256 363 2 3.64313 -6.73229 3.92618
1659 83 1 3.97395 -47.7954 4.69831
6689 335 2 5.58301 13.0247 4.86381
7475 374 2 -32.3536 -66.6799 3.36743
7476 374 2 -31.6856 -67.2697 3.57547
1304 66 1 7.05871 12.5355 4.08893
7480 374 2 -31.9175 -67.9121 4.408
1305 66 1 7.59772 13.0841 4.523
3010 151 1 -10.7247 -87.262 4.01967
735 37 1 -10.4897 -27.819 4.92086
7479 374 2 -31.207 -68.2835 3.95494
3009 151 1 -9.81985 -87.2665 4.187
7444 373 2 11.5595 11.868 4.81253
7443 373 2 11.1403 12.299 4.06272
7447 373 2 11.4703 13.26 4.78077
7441 373 2 12.3753 12.8287 3.63708
1218 61 1 -25.6994 -7.9601 4.56601
1217 61 1 -26.3083 -8.31061 3.90935
11507 576 2 35.3937 11.9956 4.10596
11509 576 2 35.23 12.9295 4.38258
11508 576 2 36.0262 12.4396 4.61614
3998 200 1 17.884 -47.7827 3.83895
3999 200 1 17.0586 -47.4584 3.9986
3997 200 1 18.5539 -47.6378 4.4392
1644 83 1 -0.439723 -47.3573 4.97289
1645 83 1 -0.512838 -47.1695 4.08598
1649 83 1 0.0777756 -46.027 3.8508
1651 83 1 1.3088 -46.3882 4.53396
1650 83 1 0.63138 -45.7782 4.52097
9781 490 2 21.6573 14.6382 4.3217
7254 363 2 2.63857 -6.44791 4.98754
2879 144 1 42.9725 -5.11323 4.58407
2880 144 1 42.7418 -5.59327 3.80299
7258 363 2 3.9702 -5.90015 3.50416
4224 212 1 24.1045 -25.8949 4.58811
1307 66 1 6.5962 14.3849 4.31068
4226 212 1 25.1443 -25.1147 4.37593
7474 374 2 -32.4232 -65.9867 4.05334
1306 66 1 6.88305 13.6052 4.8115
7470 374 2 -31.6894 -65.793 4.77403
7473 374 2 -31.6364 -65.5993 3.64413
7467 374 2 -30.0334 -66.2681 4.01782
7469 374 2 -31.3888 -66.3676 4.09996
7468 374 2 -30.7585 -65.7414 4.21937
7453 373 2 10.7265 14.3492 4.00103
7452 373 2 11.1995 13.6454 3.59358
7466 374 2 -29.425 -66.4217 4.70009
1210 61 1 -27.5142 -6.58748 4.63236
7449 373 2 12.6514 14.423 4.37485
7450 373 2 12.0443 14.8972 3.92442
7448 373 2 11.7963 14.1024 4.52859
2995 150 1 34.9745 -5.73173 4.20062
2994 150 1 34.4298 -5.23512 4.75679
2997 150 1 36.5423 -5.57211 4.72909
2996 150 1 35.6337 -5.49253 4.76131
4000 200 1 17.0728 -46.5125 3.89705
6550 328 2 -2.03721 13.3635 4.58049
2998 150 1 37.3003 -5.27971 4.24627
2999 150 1 38.136 -5.46076 4.54929
6549 328 2 -1.21218 13.7424 4.38012
6547 328 2 -0.269221 13.6138 4.91164
6548 328 2 -0.650883 14.4411 4.56099
2877 144 1 41.6255 -4.00188 4.35
2875 144 1 40.4728 -3.6054 4.51414
4939 247 2 -79.1412 -44.8831 3.63508
4938 247 2 -79.8165 -44.7824 4.24124
2878 144 1 42.4336 -4.42447 4.35794
9792 490 2 23.3212 15.7775 3.73899
9791 490 2 22.6569 16.3994 3.57522
9794 490 2 23.6403 15.8866 4.90935
9793 490 2 24.149 15.5392 4.21268
4228 212 1 24.8895 -23.5918 3.65872
4229 212 1 24.014 -23.4749 3.4591
9797 490 2 24.7506 15.9513 4.82641
1308 66 1 6.32313 15.2401 4.47572
4227 212 1 25.1543 -24.4583 3.70292
9798 490 2 25.6345 16.0646 4.47703
7472 374 2 -31.4606 -64.8916 4.17666
3015 151 1 -10.3615 -84.0169 3.56692
3016 151 1 -10.3116 -84.6969 4.18018
3018 151 1 -10.7753 -84.1742 4.77365
7455 373 2 10.5575 15.2626 3.58442
7456 373 2 10.4949 16.07 4.03946
1123 57 1 11.2426 -24.5318 4.37649
1124 57 1 11.8889 -24.8286 4.91488
1122 57 1 11.7666 -23.9175 4.79543
1121 57 1 12.1574 -23.3743 4.17358
4925 247 2 -85.4128 -44.0385 4.63578
4926 247 2 -84.6608 -44.4008 4.17496
4927 247 2 -84.3513 -43.887 4.87799
2861 144 1 36.5098 -4.51227 4.43309
4934 247 2 -81.964 -44.0373 3.95761
4937 247 2 -80.496 -44.2049 4.03911
4936 247 2 -80.5294 -44.4107 4.94843
4935 247 2 -81.3291 -44.0984 4.57646
2876 144 1 41.2841 -3.15658 4.3516
6326 317 2 20.3866 -62.2241 4.61353
6325 317 2 21.2451 -62.0354 4.89048
9790 490 2 22.7808 16.8578 4.402
4230 212 1 24.3396 -22.7234 4.00531
7353 368 2 23.5619 37.9274 4.44537
4231 212 1 24.9608 -22.6855 4.65252
9800 490 2 26.0545 17.2835 3.99938
9799 490 2 26.2813 16.724 4.67963
2762 139 1 5.80958 -61.9679 4.97874
9009 451 2 48.0193 -22.6402 4.51852
9010 451 2 48.0269 -21.7411 4.60829
9006 451 2 48.9284 -22.1154 3.83237
5900 295 2 29.3365 -61.6694 4.87646
9008 451 2 48.5156 -23.1268 3.92562
5898 295 2 30.4596 -61.7206 4.67978
1497 75 1 32.9173 -2.02719 4.68705
1500 75 1 34.7591 -1.81262 3.5519
1499 75 1 34.0058 -2.25195 3.78318
9491 475 2 -25.2021 -22.4881 4.57361
9490 475 2 -26.022 -22.6785 4.94388
4930 247 2 -83.3922 -42.404 4.24414
4928 247 2 -84.0108 -43.0408 4.72955
4929 247 2 -83.5107 -43.307 4.03114
4931 247 2 -83.3038 -41.6893 3.65271
4932 247 2 -82.5633 -42.3674 3.54657
4933 247 2 -82.0625 -43.0843 3.82657
2866 144 1 37.5514 -2.71776 4.76161
2867 144 1 38.4492 -2.52317 4.72565
6327 317 2 19.4478 -62.2057 4.67835
1761 89 1 0.992621 -20.7796 4.5848
6324 317 2 21.5162 -61.6483 4.10521
6322 317 2 21.3487 -60.3617 3.64508
407 21 1 -57.4311 -80.3942 4.799
404 21 1 -55.5187 -80.4903 4.8708
402 21 1 -55.5909 -80.0531 3.84136
406 21 1 -56.5734 -80.1099 4.65559
7352 368 2 24.3348 38.3497 4.14067
403 21 1 -54.8839 -80.0055 4.39889
2761 139 1 6.42371 -61.344 4.79637
9011 451 2 47.3787 -21.0302 4.61358
9004 451 2 49.3228 -20.9199 3.43291
9005 451 2 49.6759 -21.602 3.94471
2372 119 1 69.3008 -20.5972 4.43258
2375 119 1 70.5055 -20.5718 3.63582
10570 529 2 31.572 38.9122 3.84138
2376 119 1 70.8671 -20.2841 4.4255
10569 529 2 31.7023 39.7983 3.59984
10571 529 2 32.018 39.3264 4.53059
13394 670 4 -6.78741 -0.235684 4.55366
13393 670 4 -6.74154 -0.449703 3.65464
1498 75 1 33.5913 -1.61857 4.26211
9493 475 2 -25.5792 -20.9069 4.39731
13385 670 4 -3.61742 -0.308738 3.84422
13382 670 4 -3.64371 -1.63672 4.93709
9494 475 2 -24.7958 -20.4703 4.37405
9492 475 2 -24.9918 -21.6331 4.57606
13384 670 4 -3.09078 -0.80752 4.40317
13383 670 4 -2.75935 -1.62103 4.64675
6331 317 2 18.0703 -60.6246 4.55275
6330 317 2 18.9388 -60.5049 4.2323
6329 317 2 19.7389 -60.9356 4.14706
6328 317 2 19.4233 -61.3183 4.97484
6336 317 2 20.8338 -59.2159 5.91867
6337 317 2 20.8825 -58.9451 5.04234
6335 317 2 20.2261 -59.882 5.94131
409 21 1 -58.4198 -79.8512 5.47668
6340 317 2 22.2415 -58.7045 5.09573
5199 260 2 41.6751 1.32927 6.15885
410 21 1 -57.6397 -79.6869 5.98037
411 21 1 -57.0633 -79.2462 6.58663
5688 285 2 4.17917 0.420241 5.55903
5692 285 2 4.5365 1.28916 6.10123
5691 285 2 4.19251 1.66219 5.32884
359 18 1 25.6225 -18.5604 5.47332
5687 285 2 5.11273 0.249386 5.59253
353 18 1 25.8072 -19.2774 6.30809
356 18 1 26.6995 -19.6239 5.81191
9017 451 2 47.1935 -18.7856 6.25443
9016 451 2 47.588 -19.5614 6.47779
2776 139 1 8.5915 -58.6235 6.57715
2775 139 1 8.7711 -59.2189 5.91693
5894 295 2 29.9314 -59.4207 5.67563
2774 139 1 9.18372 -59.9443 6.34563
5893 295 2 30.8644 -59.3144 5.49004
5891 295 2 30.6245 -58.441 5.7496
3681 185 1 -49.3446 -19.0807 6.62214
5281 265 2 12.4879 40.6843 5.8879
5282 265 2 13.2644 41.1136 5.73895
9498 475 2 -25.525 -19.5489 5.86732
10123 507 2 55.8578 -38.4881 5.48114
10125 507 2 56.6005 -38.4391 6.62705
10122 507 2 56.2224 -39.2275 5.15287
9496 475 2 -24.2534 -19.9797 5.24481
9499 475 2 -24.5908 -19.5675 6.06223
9497 475 2 -24.9627 -19.355 5.14774
10121 507 2 56.8805 -39.8578 5.10461
3416 171 1 57.2369 40.4279 6.32434
3417 171 1 56.9816 41.0223 5.70511
3403 171 1 59.187 41.6059 6.62299
3404 171 1 59.3242 40.8806 6.05207
3405 171 1 58.5436 41.107 5.67757
3406 171 1 58.4341 40.2288 5.95776
3407 171 1 59.03 40.1547 6.66087
1766 89 1 0.0125999 -18.2003 5.07617
3401 171 1 60.8967 41.8931 6.38238
5200 260 2 41.5902 2.14831 5.69999
5698 285 2 2.71486 2.51415 6.23785
5696 285 2 3.63019 3.08299 6.37033
5693 285 2 4.69179 2.20825 6.04991
5694 285 2 4.77395 3.19017 6.08755
360 18 1 25.6959 -18.2552 6.40833
4580 229 2 -13.4413 -37.8361 6.09577
240 12 1 6.39665 -16.7455 5.91795
9018 451 2 47.7342 -18.255 5.6813
500 25 1 -11.935 -37.5776 6.37412
1537 77 1 9.5956 -16.7656 5.07128
499 25 1 -11.609 -37.0372 5.68222
5890 295 2 29.8099 -58.2198 6.07032
498 25 1 -10.8975 -37.4825 6.08877
497 25 1 -10.3814 -36.7524 6.32703
5889 295 2 30.2398 -57.4679 5.72566
3688 185 1 -49.1982 -17.4001 6.64549
3686 185 1 -48.7099 -18.3179 6.51423
3770 189 1 72.3308 21.7204 5.92702
3769 189 1 72.4562 22.328 5.28831
3768 189 1 72.8606 23.0419 5.74455
3771 189 1 72.9562 21.8929 6.56172
3761 189 1 74.79 22.631 5.31157
3762 189 1 73.924 22.7034 5.54949
4561 229 2 -5.71125 -38.0637 6.08278
10124 507 2 56.4933 -37.9222 5.80382
4562 229 2 -4.87119 -38.1818 6.46716
6191 310 2 -42.1088 -76.9198 5.48035
1233 62 1 17.5586 2.12382 5.31282
1232 62 1 18.0977 1.79986 5.98732
6186 310 2 -42.8154 -76.9986 6.20653
6192 310 2 -41.4893 -77.4941 5.18778
6193 310 2 -40.8566 -78.0604 5.51054
1231 62 1 18.4482 2.58238 6.39585
6194 310 2 -40.2452 -77.498 5.8819
1226 62 1 20.2366 4.16635 6.34503
1225 62 1 20.1914 3.82991 5.4864
1224 62 1 20.7817 4.54354 5.3711
2980 149 1 -18.0798 -35.3603 5.46343
2979 149 1 -17.4076 -35.8845 5.72509
2978 149 1 -16.9322 -36.2027 5.02873
232 12 1 2.41524 -15.3308 6.49622
2977 149 1 -16.532 -35.3897 5.34582
5695 285 2 4.14011 3.81223 6.30506
235 12 1 3.38659 -15.2248 6.53912
237 12 1 4.99886 -15.4249 5.9091
236 12 1 4.25875 -15.1729 6.43178
7587 380 2 6.20351 -35.5616 5.65122
239 12 1 5.77573 -16.3363 6.50789
7585 380 2 7.54201 -36.3326 6.40257
7586 380 2 6.75637 -35.8639 6.31835
7584 380 2 7.55313 -35.4526 6.61847
1534 77 1 8.65495 -15.3768 5.66775
1535 77 1 9.44672 -15.7365 5.93834
493 25 1 -11.0812 -35.3978 6.62703
1536 77 1 10.0017 -15.9857 5.28883
5885 295 2 30.5432 -55.0888 5.80655
5886 295 2 30.4376 -55.8745 6.34031
5888 295 2 30.6998 -56.6292 5.68346
5887 295 2 31.2741 -56.2429 6.25684
10792 540 2 -7.75897 4.19306 5.32259
3767 189 1 73.2918 23.881 5.68193
1528 77 1 12.4221 -15.0689 6.18641
3766 189 1 73.9831 23.49 6.16296
3765 189 1 74.4915 23.4737 5.41818
5449 273 2 -5.56027 -15.0697 5.45104
5448 273 2 -5.33914 -15.6612 6.16036
1677 84 1 -6.43552 -15.2804 6.45869
6187 310 2 -43.5362 -76.3986 6.06128
1662 84 1 -4.10436 -15.4845 6.23061
1663 84 1 -3.86044 -15.438 5.34742
6189 310 2 -42.4018 -75.8387 5.75765
6188 310 2 -43.0524 -75.6256 6.42086
1229 62 1 18.5547 3.9954 5.35439
1230 62 1 18.5399 3.49306 6.13649
1228 62 1 18.8048 4.44761 6.09255
5751 288 2 -20.2559 24.8945 5.6861
2933 147 1 61.4683 -13.5088 6.06551
2934 147 1 60.6331 -13.3597 5.79319
5752 288 2 -19.7439 25.6499 5.82262
8303 416 2 61.8531 -14.4171 5.98446
8302 416 2 62.5395 -14.4558 5.4041
8301 416 2 62.8255 -13.6341 5.64446
2740 137 1 43.8658 -33.3562 6.19336
2971 149 1 -14.3871 -34.3289 5.19148
2970 149 1 -13.7297 -33.912 5.72161
3863 194 1 6.52541 -34.4877 6.46476
8194 410 2 27.0852 -33.812 5.02051
8191 410 2 28.3043 -33.5837 5.1292
8193 410 2 27.4891 -33.5525 5.80248
3862 194 1 7.04293 -34.9566 5.83148
3861 194 1 7.91069 -34.6957 5.75435
1533 77 1 9.30527 -14.7353 5.60211
8192 410 2 28.3437 -33.8146 6.01418
1532 77 1 9.95092 -14.3517 6.20234
2546 128 1 -30.4601 -33.3934 6.32585
10790 540 2 -8.78678 5.75885 5.5484
10789 540 2 -8.66744 6.16491 6.33915
2551 128 1 -28.7665 -33.3358 5.18738
10791 540 2 -8.24902 5.04067 5.2684
1527 77 1 12.3209 -14.2878 5.70132
1526 77 1 13.0447 -13.7577 5.47242
1675 84 1 -6.843 -13.5647 6.60341
1676 84 1 -6.69977 -14.4378 6.35113
5450 273 2 -6.45554 -14.9198 5.2923
5451 273 2 -6.09404 -14.0593 5.34468
5453 273 2 -5.72553 -13.5207 6.2718
5447 273 2 -5.10555 -14.8483 6.51397
1669 84 1 -3.83521 -13.466 6.20397
1661 84 1 -4.08711 -14.558 6.04775
5300 265 2 17.7488 45.4723 6.15388
5299 265 2 17.0774 45.2658 5.57149
5760 288 2 -21.0615 25.6318 6.51574
5759 288 2 -21.5076 26.0735 5.8198
5753 288 2 -20.1202 25.4705 6.65967
7951 398 2 60.3348 27.7122 5.11316
2935 147 1 60.217 -12.9734 6.55813
8308 416 2 61.5107 -11.979 5.92792
2931 147 1 62.7375 -12.8153 5.01793
2932 147 1 62.0005 -12.9769 5.54825
8307 416 2 62.2103 -12.3549 6.44324
2739 137 1 43.2568 -32.7855 6.52698
11419 571 2 -15.2216 -32.9694 5.84461
1926 97 1 44.231 -52.5021 5.11928
7960 398 2 64.022 27.966 6.05074
2969 149 1 -13.6861 -32.9782 5.72821
11418 571 2 -14.5341 -33.2429 5.33141
2968 149 1 -14.0516 -32.4655 6.34319
11417 571 2 -14.379 -32.3553 5.17995
11416 571 2 -13.4633 -32.2929 5.04161
11415 571 2 -13.1506 -31.753 5.70579
2963 149 1 -12.2478 -32.4944 5.79684
2962 149 1 -11.9117 -31.9814 5.09903
11414 571 2 -12.7169 -31.9617 6.48548
2961 149 1 -11.1712 -32.5149 5.31138
9613 481 2 8.48406 -31.7842 6.43201
2547 128 1 -30.3389 -32.6061 5.84335
9612 481 2 8.97431 -32.5378 6.59762
2548 128 1 -29.577 -32.1603 6.07769
2550 128 1 -29.5493 -33.1264 5.597
2549 128 1 -28.8414 -32.7125 5.98889
10785 540 2 -7.86593 7.33418 6.46695
10784 540 2 -7.94473 6.76218 5.72857
211 11 1 -26.9961 -72.7613 5.48718
10783 540 2 -8.06683 7.44964 5.13923
5018 251 2 -27.2318 28.1251 6.03599
5452 273 2 -5.68432 -13.2718 5.33628
210 11 1 -26.2404 -72.2193 5.51609
5454 273 2 -5.64651 -12.6038 6.21538
5019 251 2 -26.597 27.6296 6.47207
4330 217 2 76.5326 -12.8925 5.12389
1668 84 1 -4.57768 -13.2832 5.69862
6229 312 2 16.4134 27.8267 6.16512
208 11 1 -24.9284 -72.274 5.46182
207 11 1 -24.6574 -72.1606 6.35602
7943 398 2 58.3167 27.9404 5.33036
7945 398 2 58.0602 26.9548 5.40291
6230 312 2 17.2423 27.9182 5.85297
6231 312 2 17.4893 27.2372 6.43566
2937 147 1 58.5271 -12.749 6.18332
2936 147 1 59.388 -13.0411 6.22111
7946 398 2 58.9737 27.1587 5.27093
7941 398 2 59.4284 27.9972 5.63698
7952 398 2 60.7879 28.4625 5.29516
1296 65 1 -19.1449 -11.0112 6.16581
1295 65 1 -19.2071 -10.1651 6.5787
7244 363 2 0.211352 -10.1813 5.69771
7953 398 2 61.2911 29.2359 5.21176
2921 147 1 61.8343 -10.3444 6.28338
2923 147 1 62.3636 -11.6151 5.30205
2922 147 1 62.2646 -10.7231 5.56494
7957 398 2 63.1985 29.5076 5.5623
1927 97 1 44.4457 -51.6501 5.29088
1928 97 1 44.763 -50.8689 5.6478
7958 398 2 63.4614 28.6465 5.24836
7959 398 2 63.4537 28.6763 6.18932
1929 97 1 45.6794 -50.7885 5.41521
12681 635 2 5.28804 8.5295 6.39254
1281 65 1 -14.5668 -10.0696 6.1667
3873 194 1 6.64516 -30.5716 5.83702
3874 194 1 7.53379 -30.4085 5.88206
3875 194 1 7.96383 -31.1124 5.40302
9614 481 2 8.30182 -30.888 6.36504
9608 481 2 9.71799 -31.3108 5.30967
9610 481 2 9.82344 -31.2217 6.39638
9609 481 2 9.34775 -30.6774 5.81764
3002 151 1 -8.56992 -90.2111 5.36396
739 37 1 -9.60115 -30.0364 5.37793
4165 209 1 -9.00744 8.55462 6.62304
3001 151 1 -9.11385 -90.7516 5.90683
5017 251 2 -27.7665 28.8566 6.16909
209 11 1 -25.535 -71.6659 5.7924
5459 273 2 -5.55514 -10.1367 5.67588
5458 273 2 -5.97357 -10.144 6.54261
6228 312 2 16.5517 28.7284 6.00901
5460 273 2 -4.77109 -10.6921 5.61748
6227 312 2 15.9996 29.0854 6.65799
1110 56 1 -3.75229 -10.3302 5.36969
2647 133 1 -62.2212 9.98004 5.77778
2646 133 1 -62.3717 9.0405 5.77775
2660 133 1 -61.3626 9.3486 5.56422
1297 65 1 -20.046 -11.1495 6.10814
7942 398 2 58.7242 28.4288 6.02778
1298 65 1 -20.338 -10.4033 6.47963
7242 363 2 0.0790827 -9.32222 6.3035
6543 328 2 0.102204 11.47 5.3241
6542 328 2 0.857296 11.0366 5.12945
6541 328 2 1.09888 10.5953 5.88734
3221 162 1 21.0588 31.4789 6.3559
7955 398 2 62.218 30.3716 5.24296
1935 97 1 43.1005 -49.1764 5.44667
1936 97 1 43.165 -48.9187 6.32381
6681 335 2 4.31965 10.2156 5.30483
6682 335 2 4.34796 10.545 6.13797
6683 335 2 4.92814 10.9335 5.51228
1282 65 1 -14.0691 -9.35454 5.81132
1283 65 1 -14.6622 -8.941 6.36584
11404 571 2 -12.9267 -28.5614 5.76232
11406 571 2 -12.8844 -29.6282 6.66212
11405 571 2 -12.5059 -29.4021 5.82443
862 44 1 7.8992 -28.5358 6.40964
6694 335 2 8.64799 11.5638 5.10506
740 37 1 -10.5503 -29.9386 5.24957
9620 481 2 9.38338 -28.7981 6.08674
9616 481 2 8.53577 -29.4386 6.09
726 37 1 -9.93996 -29.7483 6.50629
3740 187 1 53.2112 -9.76986 6.09432
1214 61 1 -27.2692 -8.97596 5.69744
1215 61 1 -27.126 -8.35619 5.02384
5013 251 2 -28.0053 30.696 6.40366
1213 61 1 -26.5428 -8.40635 5.75166
1220 61 1 -25.1228 -9.29877 5.15023
5001 251 2 -25.5651 30.9113 6.29701
1112 56 1 -4.37139 -8.72897 5.55071
1111 56 1 -4.21664 -9.52176 5.12049
1109 56 1 -4.01202 -9.94648 6.17817
1108 56 1 -3.56635 -9.1601 6.02359
2649 133 1 -62.1687 10.9002 5.27006
6555 328 2 -2.98975 11.4081 5.18358
2648 133 1 -62.9078 10.3054 5.2877
6221 312 2 17.6225 30.9987 6.47481
2650 133 1 -61.2968 10.6893 5.02362
7243 363 2 -0.536252 -9.65825 5.67504
7241 363 2 -0.113642 -8.41233 6.38032
3995 200 1 18.73 -48.3716 6.02607
1653 83 1 1.16398 -47.3257 5.63114
1654 83 1 1.52309 -48.1299 5.42736
8420 421 2 22.2034 -8.11581 6.16364
8419 421 2 22.3773 -7.16763 6.40554
1937 97 1 43.2419 -48.0692 6.64277
8418 421 2 23.169 -6.72841 6.19209
6685 335 2 3.88625 11.9156 5.69011
6684 335 2 4.76007 11.774 5.79639
6686 335 2 4.17998 12.7452 5.8287
6687 335 2 3.89537 13.1764 5.07299
12696 635 2 4.77054 13.3067 6.48974
1317 66 1 5.58892 12.7002 6.12214
6691 335 2 6.31014 11.953 5.45982
6690 335 2 6.34085 12.8497 5.3578
1316 66 1 6.29379 13.2247 6.38612
11402 571 2 -12.7592 -27.1194 6.36277
11403 571 2 -13.1932 -27.9332 6.33368
6692 335 2 7.0901 12.2721 5.08313
6693 335 2 7.83769 11.8484 5.43613
732 37 1 -11.0045 -26.737 5.82345
734 37 1 -11.2174 -27.3374 5.07654
733 37 1 -10.5452 -26.7171 5.04528
9619 481 2 9.12606 -27.9846 6.4315
731 37 1 -10.2567 -27.2893 5.83708
7445 373 2 10.6992 11.9971 5.06941
730 37 1 -9.75098 -28.008 6.12601
7446 373 2 11.136 12.7364 5.45995
5011 251 2 -28.7357 32.1397 6.65986
1211 61 1 -27.6545 -7.17241 5.31527
1212 61 1 -27.0881 -7.6939 5.80943
5006 251 2 -27.257 33.2274 6.41377
5003 251 2 -26.0136 32.5617 5.72482
5002 251 2 -25.6258 31.7981 6.01426
11510 576 2 34.8516 13.2725 5.17723
5005 251 2 -26.4418 32.9065 6.58629
1037 52 1 -104.535 -47.4764 5.45258
1107 56 1 -3.73201 -8.33202 6.42023
6554 328 2 -3.63829 11.9926 5.43376
1036 52 1 -103.838 -46.83 5.34513
1038 52 1 -104.916 -47.3099 6.32002
6553 328 2 -3.04914 12.526 5.01035
6552 328 2 -2.53343 12.249 5.75658
6551 328 2 -2.1378 13.0307 5.44219
1643 83 1 -1.1594 -46.8152 5.22375
3996 200 1 18.4161 -47.9011 5.31364
1641 83 1 -1.48484 -47.5676 6.43419
1642 83 1 -0.783372 -47.2073 5.94536
6546 328 2 0.648291 13.5559 5.2539
9784 490 2 21.5302 13.9016 5.91987
9785 490 2 21.5979 14.7094 6.33943