ITEM: TIMESTEP
17000000
ITEM: NUMBER OF ATOMS
14904
ITEM: BOX BOUNDS pp pp pp
0.0000000000000000e+00 2.0000000000000000e+01
0.0000000000000000e+00 2.0000000000000000e+01
0.0000000000000000e+00 1.2000000000000000e+02
ITEM: ATOMS id mol type xu yu zu
5816 334 3 34.1245 -213.137 9.42249
6600 374 3 15.4275 83.3304 11.6588
5812 334 3 33.523 -213.358 11.3168
5814 334 3 34.3579 -214.349 10.4656
5815 334 2 33.8858 -213.622 10.1606
5813 334 2 34.391 -213.602 11.0809
5797 334 2 38.2701 -213.78 11.356
5811 334 2 32.7015 -213.054 11.6564
5809 334 2 32.9804 -211.678 11.6631
5808 334 3 33.5009 -212.005 10.9409
7037 396 2 -181.913 567.305 11.0857
7354 411 3 -6.84994 261.503 13.3026
7356 411 3 -6.70422 260.397 12.9071
7355 411 2 -6.95984 261.186 12.4419
7337 411 2 -8.27336 260.838 12.4792
6610 374 3 11.523 83.2712 12.5748
5621 325 2 50.0198 42.3868 13.2385
6609 374 2 11.8565 83.3258 11.7084
6598 374 3 16.0508 82.7722 12.2896
6597 374 2 15.1596 82.5211 12.3064
4776 282 3 -170.632 4.67465 13.275
6614 374 3 9.59366 83.4969 13.2571
6613 374 2 9.76333 83.716 12.3566
6611 374 2 11.0131 83.7862 12.0209
6612 374 3 10.5698 83.9851 12.7874
6608 374 3 12.545 83.8085 12.0045
6606 374 3 12.2068 83.9836 13.1086
6605 374 2 12.4708 84.7935 12.7097
6607 374 2 12.7931 83.3579 12.7872
6604 374 3 13.3128 84.4441 12.4883
6601 374 2 14.7955 83.5017 12.3317
6603 374 2 13.8026 83.8102 12.0382
6602 374 3 14.1632 83.9391 12.8972
6620 375 3 34.4071 44.8894 12.6688
6599 374 2 16.0714 83.7122 12.1802
6622 375 3 35.3471 44.623 13.2462
4775 282 2 -169.978 5.07003 12.8156
4774 282 3 -169.77 5.98711 12.7977
6738 381 3 71.6201 106.484 12.1709
6739 381 2 71.6236 106.097 13.0159
4232 255 3 192.879 145.86 13.2377
6737 381 2 71.8105 105.729 11.7092
6617 375 2 34.8579 46.4746 12.3506
6619 375 2 34.3544 45.4457 11.8974
5396 313 3 -25.237 45.7688 13.2111
6618 375 3 35.2005 45.8728 11.7458
7939 443 1 16.0997 5.45495 12.9671
7937 443 1 16.4534 6.05573 12.1654
6621 375 2 35.29 45.1751 12.5176
7941 443 3 15.7731 6.39799 13.1275
5799 334 2 37.4842 -213.957 12.374
7938 443 1 16.7327 6.16494 13.0203
5798 334 3 37.455 -213.405 11.6895
4768 282 3 -171.116 7.40775 12.8281
4767 282 2 -170.842 8.20736 13.1579
4231 255 2 192.469 146.685 13.039
4230 255 3 192.398 147.594 13.1879
5810 334 3 33.1366 -212.398 12.1733
5807 334 2 33.9427 -211.684 11.6813
5806 334 3 34.3433 -212.454 11.8926
4236 255 3 193.457 147.033 12.9491
5805 334 2 35.1707 -212.501 12.237
5804 334 3 35.7258 -213.172 11.9906
5803 334 2 36.5545 -212.901 11.702
5802 334 3 36.6122 -212.99 12.5548
5801 334 2 37.285 -212.313 12.6341
5800 334 3 37.6792 -213.145 12.7853
7040 396 3 -182.098 568.226 12.4294
7038 396 3 -181.585 567.137 11.9343
7039 396 2 -181.435 567.688 12.7112
5640 326 3 43.8975 409.775 13.2675
4598 274 3 176.217 128.758 12.8899
7041 396 2 -181.988 568.983 13.0087
4599 274 2 176.855 129.33 12.4879
4601 274 2 177.871 129.961 12.9032
4603 274 2 178.91 129.487 12.9777
4757 282 2 -171.958 10.366 13.0346
4602 274 3 178.609 130.329 13.318
6777 383 2 252.512 73.7969 13.0417
7321 410 2 -85.437 157.97 13.0189
7325 410 2 -87.2571 159.011 12.3786
7326 410 3 -87.5764 159.315 13.2482
7338 411 3 -8.26088 259.892 12.6793
7322 410 3 -86.2758 158.377 12.9266
7323 410 2 -86.1418 158.746 12.1203
7324 410 3 -86.4909 159.435 12.6212
3798 234 3 102.64 60.4696 14.546
6674 377 3 -95.0286 -159.911 14.9231
3799 234 2 103.448 60.7569 14.8138
6673 377 2 -94.234 -159.452 14.9009
7339 411 2 -8.70784 260.036 13.5246
7328 410 3 -87.2747 160.585 14.2778
5631 325 2 51.9235 41.5297 14.5398
7329 410 2 -88.137 160.261 14.4502
7352 411 3 -6.11265 261.031 14.4986
7351 411 2 -6.16466 260.077 14.2856
6657 377 2 -96.9284 -157.681 13.4226
6659 377 2 -95.2507 -157.457 14.0675
6663 377 2 -95.1384 -157.046 14.9593
6658 377 3 -96.0466 -157.51 13.6021
4443 266 2 4.54255 -18.1206 14.819
4444 266 3 3.6094 -18.1089 14.6727
6660 377 3 -94.6397 -156.746 13.9617
6662 377 3 -94.324 -157.438 14.7374
6661 377 2 -93.8636 -157.195 13.9413
3855 236 2 27.6174 301.684 14.3824
3854 236 3 28.4595 301.888 14.6456
6616 374 3 8.3374 82.9074 14.3484
5618 325 3 51.1331 43.0349 14.9452
5622 325 3 50.587 43.1044 13.413
5619 325 2 51.2511 42.4112 14.3445
5620 325 3 50.3983 42.3107 14.0713
5629 325 2 52.5191 42.5633 14.4179
5630 325 3 52.8115 41.7533 14.8279
7353 411 2 -6.32368 261.781 14.0106
6634 375 3 35.7128 42.9027 14.3412
3539 221 2 23.5181 84.9316 14.8728
6615 374 2 9.16175 83.4352 14.0939
5624 325 3 51.2433 43.6917 14.0452
5623 325 2 50.3615 43.4268 14.2211
6742 381 3 70.3713 104.495 13.769
6741 381 2 71.1107 104.95 13.5276
5627 325 2 52.9914 44.3024 14.0683
5626 325 3 52.3263 44.9557 13.9524
5625 325 2 51.8065 44.3186 14.4517
5628 325 3 52.7947 43.4702 14.4458
6623 375 2 34.5749 44.5137 13.7813
6625 375 2 34.2569 44.7898 14.5915
6626 375 3 33.8819 43.9944 14.7267
6635 375 2 36.0877 43.7049 13.9952
6636 375 3 36.2957 44.5729 14.1839
6633 375 2 35.1184 43.5821 14.0564
6632 375 3 35.4077 44.1789 14.6605
5593 323 2 58.1342 4.8429 14.8592
5592 323 3 57.9053 4.0393 14.4833
5591 323 2 58.5377 3.44764 14.8087
5958 342 3 -119.944 85.5408 14.3349
5974 342 3 -118.933 86.4109 14.8886
5975 342 2 -119.155 86.4873 13.9889
5973 342 2 -118.926 85.5121 14.6768
5976 342 3 -118.271 86.5388 13.7819
5972 342 3 -118.094 85.1501 14.5151
3540 221 3 24.4296 85.0731 14.9048
3543 221 2 25.3267 86.408 14.2348
3542 221 3 25.5074 85.7693 14.8862
6744 381 3 69.2142 105.324 14.8216
6743 381 2 69.8343 105.129 14.2053
4773 282 2 -170.283 6.22068 13.5355
4772 282 3 -170.658 6.2177 14.3653
6740 381 3 70.9708 105.834 13.6235
4233 255 2 193.122 145.727 14.0997
4224 255 3 191.947 145.294 14.8841
4225 255 2 192.193 145.958 14.314
4234 255 3 193.544 146.346 14.5731
6624 375 3 33.9899 45.2105 13.822
5395 313 2 -25.7383 46.3332 13.696
6631 375 2 35.2349 45.0784 14.5129
7940 443 1 15.8474 5.74377 13.8118
7945 443 1 16.0841 6.13337 14.7514
5595 323 2 57.2065 5.19174 14.4101
5596 323 3 57.2949 5.48681 13.516
7946 443 3 17.0208 6.15981 14.6735
5957 342 2 -120.478 85.1302 13.7428
5961 342 2 -121.201 85.914 14.7343
3551 221 2 21.4757 87.5266 14.6801
3611 224 2 40.1815 167.62 14.3966
3549 221 2 22.722 87.3244 14.4926
3548 221 3 23.6084 87.5278 14.4151
3544 221 3 24.5841 86.7556 14.6048
5643 326 2 45.379 408.326 14.2235
4770 282 3 -170.646 7.30473 13.8743
4771 282 2 -170.564 7.05799 14.7351
4769 282 2 -171.477 7.51261 13.6619
4766 282 3 -170.849 8.27657 14.1579
4229 255 2 193.192 148.014 13.4359
4235 255 2 193.234 146.793 13.8489
4227 255 2 192.082 147.628 14.6074
4228 255 3 192.464 148.247 14.0067
4226 255 3 191.873 146.821 14.1283
5394 313 3 -25.5954 47.2104 13.7026
5393 313 2 -25.5665 47.0689 14.6078
3734 230 3 -5.81965 -171.84 14.0269
4597 274 2 176.651 128.256 13.5455
7942 443 2 16.1827 6.97464 13.8057
7943 443 1 15.4465 7.04764 14.3151
7944 443 1 16.153 7.03681 14.8861
7952 443 1 17.6426 7.02862 13.9887
7951 443 1 17.6369 7.87313 13.6263
3615 224 2 39.1066 167.187 14.6898
3613 224 2 39.184 167.765 13.6719
3612 224 3 39.9641 167.242 13.6248
3616 224 3 39.8195 166.676 14.4993
3614 224 3 38.4385 167.558 14.1585
3555 221 2 21.5191 89.1373 14.1687
5639 326 2 43.2306 409.203 13.5019
3556 221 3 22.0862 88.4312 14.1354
5638 326 3 43.0585 409.885 14.0025
3554 221 3 22.1583 89.4414 14.7223
5641 326 2 44.7382 409.636 13.6512
5644 326 3 44.7399 408.589 14.8683
5642 326 3 45.272 408.886 13.5268
4758 282 3 -171.93 9.85352 13.8044
4759 282 2 -172.074 9.17317 14.4152
4760 282 3 -171.972 8.36272 14.8656
4765 282 2 -171.056 8.90702 14.7661
3796 233 3 71.4648 189.362 14.2354
3794 233 3 72.5448 189.327 14.1534
3795 233 2 71.9254 189.011 13.5079
3791 233 2 73.7003 189.502 14.5356
3735 230 2 -5.4969 -171.137 14.5974
3733 230 2 -6.54391 -171.604 14.5685
3787 233 2 76.1604 189.669 14.0519
3736 230 3 -4.84375 -170.597 14.2147
3786 233 3 75.9497 188.781 13.9108
3784 233 3 75.8178 189.205 14.983
3785 233 2 75.3596 188.513 14.552
4600 274 3 177.281 129.431 13.3365
7950 443 1 17.7941 8.40061 14.3567
7044 396 3 -180.948 568.902 14.4518
7043 396 2 -181.428 569.433 13.8563
7042 396 3 -181.212 568.601 13.4285
4604 274 3 179.722 129.595 13.4885
3605 224 2 41.1301 170.589 14.7801
5637 326 2 43.0366 410.717 14.3626
3793 233 2 72.6324 190.278 14.2324
3792 233 3 73.4687 190.097 13.9093
3789 233 2 74.685 190.689 13.8839
3790 233 3 74.2323 190.232 14.5302
4360 262 3 53.9059 11.263 14.7271
4361 262 2 54.8194 11.2664 14.9838
3788 233 3 75.5308 190.37 14.1927
5536 320 3 55.2165 -8.44579 14.0094
7050 396 3 -183.259 570.502 14.8006
4607 274 2 179.771 131.485 14.9081
4606 274 3 179.266 131.145 14.2353
4605 274 2 179.688 130.505 13.6545
4912 289 3 104.432 13.1569 14.9558
3717 230 2 -9.78982 -167.86 14.9375
5535 320 2 54.4132 -8.00518 13.9925
5528 320 3 54.0308 -7.39986 14.7971
5529 320 2 54.2193 -6.69416 14.2468
5532 320 3 56.0171 -6.73158 14.1264
5534 320 3 55.1429 -7.49324 14.2186
5533 320 2 56.0449 -7.62402 13.9293
4608 274 3 178.942 131.974 14.8324
4901 289 2 99.9914 13.1248 14.9177
4899 289 2 100.079 14.3973 14.4756
6778 383 3 252.76 74.6549 13.3951
6780 383 3 251.805 74.9286 14.8562
6779 383 2 252.169 74.9902 14.003
5531 320 2 55.7718 -5.85744 13.9076
5530 320 3 55.0134 -6.36489 13.9112
4616 274 3 177.911 133.995 14.8707
4615 274 2 178.741 133.52 14.9191
4900 289 3 99.4601 13.724 14.5037
4898 289 3 99.4078 14.9751 14.671
7317 410 2 -84.859 156.507 14.7725
5518 320 3 56.4359 -3.9397 14.5161
5519 320 2 56.3947 -4.82631 14.6946
4535 270 2 -180.419 -3.48501 14.5579
7320 410 3 -85.5457 158.292 13.8963
7318 410 3 -84.9262 157.386 14.517
7319 410 2 -84.6578 158.028 13.9387
5517 320 2 56.4118 -3.25868 13.9211
3494 218 3 41.392 38.6947 14.7983
3493 218 2 40.4916 38.6335 14.7412
3496 218 3 41.9252 39.6316 14.9454
3495 218 2 42.3121 38.8375 14.6151
3797 234 2 103.105 59.8374 14.0223
6676 377 3 -95.284 -160.915 13.8895
6675 377 2 -95.0476 -160.072 14.0313
6406 364 3 -113.487 319.007 14.6934
7340 411 3 -8.94871 259.754 14.3675
7327 410 2 -87.2279 159.675 14.0406
7330 410 3 -87.9363 159.389 14.7027
7350 411 3 -5.91658 259.246 14.59
4782 283 3 -138.669 -418.997 15.6846
4784 283 3 -139.584 -418.344 15.793
4783 283 2 -139.518 -419.149 15.327
4781 283 2 -138.792 -418.477 16.4543
4448 266 3 2.11349 -19.6026 16.2959
4446 266 3 3.13921 -18.7343 15.8088
4447 266 2 2.79114 -19.6045 15.7116
4445 266 2 3.95443 -18.5155 15.4592
3800 234 3 103.836 60.4762 15.5919
6412 364 3 -115.569 321.013 16.3539
6411 364 2 -115.143 320.215 16.4561
6671 377 2 -93.9315 -158.633 15.9236
6672 377 3 -93.5249 -158.927 15.1467
6409 364 2 -114.339 320 15.9053
6408 364 3 -113.416 320.071 15.8536
6670 377 3 -93.2449 -158.636 16.5387
3856 236 3 27.6608 301.637 15.3093
4257 257 2 109.15 200.23 15.5483
4258 257 3 108.641 200.827 16.0526
5633 325 2 51.0762 41.4875 15.9605
7334 410 3 -86.7715 160.862 15.7218
7331 410 2 -87.8699 160.104 15.3347
7333 410 2 -87.49 160.769 16.3662
7336 410 3 -85.0566 160.39 15.5019
7335 410 2 -85.8823 160.609 15.8568
3481 218 2 35.7896 41.1514 15.5065
3480 218 3 36.6195 41.1775 15.1705
3482 218 3 36.2344 40.3238 15.784
4791 283 2 -143.444 -418.865 16.6404
4790 283 3 -142.59 -418.831 16.2766
5425 315 2 -80.5448 121.023 16.3914
5424 315 3 -80.3508 120.119 16.3901
4779 283 2 -138.905 -417.238 15.3782
4780 283 3 -138.893 -417.579 16.2228
4785 283 2 -139.916 -417.609 16.2197
4778 283 3 -138.24 -416.785 15.8446
4442 266 3 4.98494 -18.3102 15.6102
4440 266 3 4.95154 -17.1937 15.9807
4441 266 2 5.58822 -17.8388 16.2246
6666 377 3 -93.6264 -157.06 16.0637
6667 377 2 -92.7477 -157.341 16.1448
3852 236 3 28.5299 301.825 16.4485
3853 236 2 28.7318 301.952 15.5545
5617 325 2 50.9908 43.0318 15.848
5632 325 3 51.3575 41.8764 15.2064
3657 227 2 75.0203 -56.9589 16.0579
3659 227 2 76.3871 -56.9235 15.8165
3658 227 3 75.5708 -56.7758 15.3723
3479 218 2 36.6246 42.0847 15.0912
3477 218 2 37.2638 42.784 16.2701
3478 218 3 37.1304 42.8009 15.3776
4786 283 3 -140.807 -417.77 16.4295
4777 283 2 -137.932 -415.897 16.1073
4439 266 2 4.63631 -16.3227 16.0641
6664 377 3 -94.4716 -156.551 15.368
6665 377 2 -93.9666 -156.223 16.0662
3541 221 2 25.326 84.8885 15.1258
6750 381 3 67.7925 103.804 15.9521
6748 381 3 68.4357 104.34 15.3227
6749 381 2 68.6733 103.474 15.7044
2604 163 2 -30.2007 -15.921 16.1842
2605 163 1 -30.4883 -15.681 15.3821
2603 163 1 -30.8885 -15.3155 16.2994
2608 163 1 -29.0223 -15.736 15.4899
2606 163 1 -29.9328 -15.1266 15.82
4219 255 2 192.42 144.84 16.4402
6630 375 3 34.8904 44.9059 15.33
6627 375 2 34.5765 43.8315 15.2936
6628 375 3 34.5647 44.2504 16.0885
3662 227 3 75.7655 -55.1561 16.2829
3661 227 2 75.88 -56.0535 16.5734
3660 227 3 76.6938 -56.125 16.2132
5590 323 3 58.1209 3.50694 15.6086
5589 323 2 59.0808 3.59839 15.5346
5588 323 3 59.0003 4.44155 15.8279
5970 342 3 -117.772 86.4418 15.6694
5971 342 2 -118.261 85.6818 15.2787
3537 221 2 24.0343 85.7481 15.8124
3538 221 3 23.4844 85.8181 15.1101
2671 167 1 -114.795 -53.5913 16.5573
6747 381 2 68.106 105.174 15.547
6746 381 3 68.3742 105.947 15.1183
6745 381 2 69.0435 105.615 15.652
7192 403 3 -50.2711 45.642 16.4543
2602 163 3 -31.4405 -14.6134 16.4616
2607 163 1 -29.2003 -14.8316 15.3569
4218 255 3 191.666 145.338 16.3507
4217 255 2 190.914 145.83 16.5225
4220 255 3 193.294 145.113 16.6423
4222 255 3 192.286 146.268 16.1598
4223 255 2 192.467 145.764 15.4322
6629 375 2 34.3448 45.1864 16.0176
5392 313 3 -25.4277 46.5555 15.3787
7857 438 1 -23.6085 45.6628 15.7808
7860 438 1 -23.9674 46.5927 16.1521
5594 323 3 57.5676 5.4877 15.1946
7858 438 1 -23.0884 45.5672 16.5431
7859 438 1 -23.0765 46.4632 16.3094
5959 342 2 -120.32 85.5999 15.1663
5960 342 3 -121.232 85.3402 15.4662
5962 342 3 -121.048 86.5885 15.2998
3610 224 3 40.2138 167.826 15.3333
3609 224 2 40.7247 168.186 15.9914
3552 221 3 21.6634 88.3229 15.2057
5968 342 3 -118.859 87.0131 15.7048
5967 342 2 -119.608 86.9888 16.1964
3550 221 3 22.1516 87.417 15.2466
3547 221 2 23.33 87.1022 15.1861
3502 219 3 -77.1509 47.6762 16.6108
5969 342 2 -118.276 86.7049 16.4156
3545 221 2 24.3719 87.2708 15.3277
3546 221 3 23.7496 87.1127 15.9785
5654 326 3 44.79 407.339 16.3727
7259 407 2 47.9357 -212.825 15.9647
7258 407 3 47.2883 -212.633 16.6262
4763 282 2 -170.119 8.3083 15.0612
4761 282 2 -171.37 8.20054 15.5927
7261 407 2 49.5232 -212.633 16.1972
7260 407 3 48.667 -212.713 16.5112
7262 407 3 50.2899 -212.505 16.5726
5388 313 3 -25.7177 48.3126 16.4502
5390 313 3 -24.7867 46.9119 16.5648
5391 313 2 -24.7575 47.1078 15.6394
7861 438 3 -23.8324 47.3941 16.4726
7947 443 1 17.5086 6.75184 15.1706
7948 443 2 17.2882 7.44536 15.7702
7949 443 1 17.6605 8.05247 15.2063
5577 323 2 58.0589 8.25618 16.5832
5963 342 2 -121.64 87.221 15.5679
5964 342 3 -121.511 86.7832 16.4255
5966 342 3 -120.43 86.9297 16.6067
4208 254 3 39.7378 -11.7891 16.2528
3608 224 3 40.9801 168.947 15.5347
3607 224 2 41.0593 169.651 16.0991
4206 254 3 40.3615 -11.0654 16.5657
3553 221 2 22.4531 88.7188 15.2213
4203 254 2 42.6932 -10.6902 16.3416
4204 254 3 41.8638 -11.0095 16.1939
5645 326 2 44.0949 409.203 15.0208
5646 326 3 44.1073 408.966 15.8871
4202 254 3 43.4848 -10.2713 16.1504
7650 426 3 186.898 148.483 16.0178
7651 426 2 187.037 149.268 16.3883
4762 282 3 -170.548 8.52896 15.8269
4764 282 3 -170.233 9.21276 15.0707
3724 230 3 -10.314 -170.712 16.6194
3676 227 3 71.0564 -51.0875 15.1325
3729 230 2 -7.85636 -170.234 15.3174
3675 227 2 71.9158 -51.126 15.5268
3731 230 2 -6.96146 -171.191 15.4696
3674 227 3 71.9484 -51.306 16.4435
3730 230 3 -6.95172 -170.315 15.1048
5383 313 2 -26.7717 49.8588 16.5177
3732 230 3 -6.11992 -171.504 15.4021
5385 313 2 -26.3846 48.9561 16.35
5384 313 3 -25.8972 49.6858 16.5905
3783 233 2 75.39 189.073 15.7715
3782 233 3 75.876 188.414 16.2545
3781 233 2 76.5589 188.384 15.6347
3779 233 2 76.6848 189.645 16.3327
3780 233 3 76.8693 189.236 15.5476
7048 396 3 -182.014 569.881 15.535
7045 396 2 -180.423 568.667 15.1718
7047 396 2 -181.257 569.961 16.0318
7046 396 3 -180.603 569.464 15.5889
4209 254 2 39.3298 -10.9716 16.612
3606 224 3 41.6014 170.042 15.4495
3604 224 3 40.4562 170.332 15.2579
3603 224 2 40.3078 170.886 15.9636
3602 224 3 41.0266 171.242 16.4059
3601 224 2 41.936 171.347 16.3163
3600 224 3 42.4811 170.679 16.6664
4908 289 3 101.794 11.5273 15.2179
4200 254 3 44.0277 -8.67721 16.4627
4201 254 2 43.8425 -9.56363 16.5307
3722 230 3 -11.0954 -169.488 16.6244
3725 230 2 -10.4156 -169.952 16.1588
3721 230 2 -10.9217 -168.59 16.6101
3726 230 3 -9.9757 -169.203 16.4474
3727 230 2 -9.36608 -169.818 16.1379
3728 230 3 -8.55535 -169.624 15.6463
4817 285 2 32.2896 51.5022 15.5892
4818 285 3 32.5148 50.9408 16.2172
4359 262 2 53.7868 10.657 15.3805
7053 396 2 -185.167 570.323 16.2014
5382 313 3 -26.2636 50.6036 16.4338
4358 262 3 53.5901 11.4257 15.7881
4362 262 3 55.3482 11.4779 15.7306
7052 396 3 -184.701 570.229 15.3768
7051 396 2 -183.832 570.55 15.4914
10097 578 1 17.0093 31.4038 15.5881
7049 396 2 -182.816 570.256 15.5565
4609 274 2 178.314 131.446 15.3351
4610 274 3 178.275 131.164 16.199
4906 289 3 100.65 12.0491 15.1914
4905 289 2 100.008 12.3325 15.753
4907 289 2 101.47 12.3536 15.4703
11103 640 1 1.48445 -46.7201 15.8528
11102 640 1 2.33881 -46.7394 15.4821
4909 289 2 102.711 11.6785 15.3629
4910 289 3 102.984 12.4938 15.605
8286 464 1 -137.604 72.5848 16.5436
8284 464 2 -136.559 72.9727 16.5438
4911 289 2 103.822 12.5089 15.1611
7733 430 2 45.6905 32.791 16.2682
7735 430 2 46.7784 33.1991 16.0485
3720 230 3 -10.4437 -167.825 16.4999
3718 230 3 -9.30198 -168.209 15.6583
3719 230 2 -9.50486 -167.705 16.3726
6790 383 3 251.59 71.8817 16.5975
4357 262 2 53.0679 11.9504 15.265
6785 383 2 252.757 73.2517 16.3009
5526 320 3 54.3756 -7.89418 16.4665
5525 320 2 54.7768 -7.00023 16.4872
5527 320 2 54.4738 -7.72465 15.5617
6786 383 3 253.52 72.7642 16.1158
4363 262 2 55.9517 11.7243 16.3428
10098 578 1 17.0771 32.1512 15.0787
10100 578 1 17.4012 32.797 16.4323
10099 578 1 16.7377 32.38 15.8989
4611 274 2 177.634 131.68 16.6346
4612 274 3 178.209 132.348 16.3416
4613 274 2 178.005 132.462 15.4751
4904 289 3 99.8308 13.0723 16.1976
4614 274 3 178.866 132.784 15.5096
4903 289 2 100.531 13.657 16.1104
11094 640 2 1.18677 -45.3169 16.3172
11101 640 1 2.85407 -46.0347 15.7508
11100 640 2 2.02965 -45.7637 15.5041
8275 464 1 -137.325 74.4871 16.6558
4915 289 2 103.632 14.5092 16.0482
4913 289 2 103.573 13.3925 15.2211
4914 289 3 104.031 14.2074 15.2899
8283 464 1 -135.786 73.3945 16.2053
9408 534 1 84.7217 -45.5019 16.4277
7371 412 2 6.29401 -25.1216 16.227
7734 430 3 46.1085 33.5669 16.5489
7736 430 3 46.7461 33.6918 15.2456
7372 412 3 7.20586 -25.0106 16.5642
6784 383 3 253.093 74.0472 15.9722
5524 320 3 54.2123 -6.30362 16.1888
6783 383 2 253.8 74.5082 15.6449
5523 320 2 54.7558 -6.47361 15.3971
5521 320 2 55.7192 -5.51043 15.2266
5522 320 3 55.6436 -6.40481 15.1379
213 14 3 35.544 34.6321 16.6411
214 14 2 36.2526 34.0977 16.5963
4537 271 2 -42.9127 133.851 15.8443
4538 271 3 -42.9845 134.563 15.3062
4526 270 3 -183.19 -5.13889 16.2246
4528 270 3 -182.112 -5.43151 16.2144
3023 189 1 38.1046 -6.31515 15.8914
4902 289 3 99.9353 13.9043 15.4536
4529 270 2 -181.297 -5.03001 16.2656
3024 189 1 39.0035 -6.26424 16.0581
4897 289 2 100.088 15.2737 15.2818
11095 640 1 1.03045 -44.5374 15.8679
11096 640 1 1.63384 -44.1891 15.3088
11098 640 3 2.6483 -44.2615 15.1545
11097 640 1 2.21108 -43.5935 15.6881
11099 640 1 2.45994 -44.9806 15.7728
4454 266 3 3.01665 -23.5857 16.2121
4916 289 3 103.797 15.1656 15.4172
9407 534 1 84.4863 -44.6173 16.491
7373 412 2 8.09092 -24.8475 16.1955
6397 364 2 -111.922 316.143 15.6806
7376 412 3 9.36534 -23.5198 16.4091
6782 383 3 253.102 75.0954 15.5611
6781 383 2 252.19 75.1595 15.6583
212 14 1 34.9886 35.19 16.1278
210 14 1 34.6633 36.2361 16.4047
211 14 1 34.7522 35.8819 15.5545
5520 320 3 55.7001 -4.59333 15.2966
4524 270 3 -184.133 -4.34851 16.4754
4540 271 3 -43.3078 135.981 15.5823
4539 271 2 -42.6325 135.344 15.6561
4531 270 2 -181.881 -3.58227 16.3309
4530 270 3 -181.222 -4.14728 16.0555
4534 270 3 -180.556 -3.59669 15.4385
3816 234 3 100.343 57.7954 15.9566
4536 270 3 -179.923 -2.90024 15.0715
3814 234 3 101.211 56.8722 16.4691
3813 234 2 102.051 57.1891 16.5328
3812 234 3 102.075 57.8931 15.9197
3810 234 3 103.255 58.2924 15.5446
4453 266 2 3.44551 -22.7851 16.2559
6404 364 3 -114.059 317.915 15.2764
6403 364 2 -113.694 317.097 15.1517
6402 364 3 -113.04 317.404 15.7218
6400 364 3 -112.178 318.046 15.1848
6401 364 2 -113.054 318.161 15.135
6398 364 3 -111.986 317.007 15.2314
5510 319 3 -92.2872 116.898 16.3958
6399 364 2 -111.387 317.637 15.4166
5509 319 2 -91.57 117.442 16.4764
6571 372 2 -89.6797 58.187 16.303
6573 372 2 -88.4136 57.5462 16.5644
6572 372 3 -89.1658 57.4835 16.1092
7347 411 2 -6.76234 257.329 15.5318
7346 411 3 -7.35105 257.638 16.1946
7348 411 3 -6.40577 258.146 15.7802
4544 271 3 -45.377 137.536 16.0055
4545 271 2 -46.0879 137.349 16.5943
4542 271 3 -44.0232 136.73 15.9948
4543 271 2 -44.6811 137.188 15.549
4541 271 2 -43.1222 136.854 15.8009
3487 218 2 39.096 38.2495 16.0854
3486 218 3 38.3677 37.8616 16.606
4532 270 3 -181.04 -3.23167 16.4762
4533 270 2 -181.17 -2.93478 15.6232
5418 315 3 -79.2728 118.705 16.3082
5417 315 2 -78.7607 119.199 15.7314
3492 218 3 40.0753 38.813 15.5284
3811 234 2 102.581 58.6724 16.0487
6410 364 3 -115.16 319.666 15.7739
3808 234 3 104.693 58.4908 16.1316
3809 234 2 104.089 58.597 15.4129
3801 234 2 103.662 59.8169 16.2171
6405 364 2 -113.965 318.832 15.4597
5498 319 3 -92.0741 119.131 15.5826
4259 257 2 108.278 199.984 16.0349
6407 364 2 -112.999 319.335 15.4325
5497 319 2 -92.6085 118.486 15.9934
5499 319 2 -91.1853 119.161 15.3313
5500 319 3 -91.2406 118.632 16.1113
7341 411 2 -9.27305 259.992 15.2338
7343 411 2 -8.81113 259.072 16.1442
7342 411 3 -8.75443 259.97 16.0296
7332 410 3 -87.3437 159.911 16.0559
7344 411 3 -8.11762 258.69 16.6263
7345 411 2 -7.21613 258.55 16.5023
7349 411 2 -6.50613 258.782 15.1181
6638 376 3 33.7966 19.7722 16.5079
6639 376 2 34.1151 18.8886 16.6278
4795 283 2 -144.26 -421.28 15.8405
4796 283 3 -144.808 -421.019 15.199
4794 283 3 -144.353 -420.362 16.213
3483 218 2 36.5703 39.4618 15.7402
3485 218 2 37.7454 38.4691 16.3279
3484 218 3 37.2152 39.2303 16.3267
3490 218 3 38.5358 39.7262 15.6122
3488 218 3 39.0577 39.11 16.3861
3491 218 2 39.3619 39.3757 15.4222
3489 218 2 38.4521 39.8169 16.4937
5426 315 3 -79.9784 121.526 16.9108
5428 315 3 -79.6906 120.585 17.6971
5427 315 2 -79.3967 121.474 17.6477
10198 584 2 63.2325 80.8761 18.2947
10199 584 1 63.0604 80.387 17.574
10203 584 1 62.3123 81.5458 17.8973
10201 584 1 62.7801 81.4693 16.6961
10202 584 3 62.2996 80.925 17.1855
6416 364 3 -115.117 320.579 17.5068
10200 584 1 63.5084 81.0568 17.1543
6414 364 3 -114.617 321.508 16.9062
6415 364 2 -114.981 321.442 17.7293
4260 257 3 107.914 200.18 16.871
4261 257 2 108.255 201.072 16.9619
4262 257 3 108.169 201.044 17.9017
3850 236 3 29.1553 301.547 17.5324
3849 236 2 29.3469 300.934 16.8646
6566 372 3 -90.7607 60.4483 18.018
3848 236 3 30.1611 300.855 17.4805
3847 236 2 30.8566 300.497 17.8904
5847 336 2 -49.9828 -78.4436 18.262
856 54 1 11.4366 -18.6816 18.2348
855 54 1 11.81 -19.0582 17.4586
854 54 2 12.5827 -19.5299 17.7144
853 54 3 13.2856 -18.8994 17.8467
6637 376 2 33.1561 20.0624 17.0586
6643 376 2 34.3659 20.8703 17.0282
7002 394 3 74.5796 1.38992 18.0676
6642 376 3 34.1287 20.4644 17.9282
6646 376 3 36.1475 20.9102 17.4313
6647 376 2 36.5215 20.2464 17.9456
6645 376 2 35.4868 20.5416 16.9814
7003 394 2 75.3508 0.847084 18.1045
4789 283 2 -142.082 -418.817 17.0778
4792 283 3 -143.252 -419.754 16.8725
5429 315 2 -80.5588 120.633 17.5775
5430 315 3 -80.6569 121.516 17.883
10207 584 1 60.6414 82.4751 17.5843
10206 584 1 61.5116 82.4301 17.5098
3653 226 2 163.219 181.88 17.7443
3654 226 3 162.641 182.371 17.2088
3655 226 2 162.424 183.207 16.9275
6413 364 2 -115.49 321.877 16.7243
2658 167 1 -115.688 -57.2495 17.7353
2657 167 1 -115.85 -57.012 16.8478
2659 167 1 -114.911 -57.4088 17.2786
2660 167 1 -114.096 -56.9619 17.1097
6668 377 3 -92.0325 -157.357 16.6683
6669 377 2 -92.4559 -158.18 16.7831
5844 336 3 -52.1096 -77.6966 17.7253
5843 336 2 -52.8566 -77.218 17.4718
5842 336 3 -52.9746 -76.8512 18.2659
3851 236 2 29.2645 302.233 16.8642
5845 336 2 -51.2549 -77.354 18.096
5634 325 3 50.9902 41.9101 16.7054
5635 325 2 51.4696 41.978 17.5244
6817 385 2 110.856 302.878 17.1594
6818 385 3 110.615 302.646 18.051
5636 325 3 52.014 41.8391 16.751
850 54 1 12.0142 -17.0693 17.9334
852 54 1 13.2842 -18.1033 18.306
851 54 1 12.4534 -17.7749 18.3217
6997 394 2 73.319 2.75175 17.3515
7001 394 2 74.8168 2.26383 18.2373
6998 394 3 74.1954 2.59985 17.176
6577 373 2 95.2463 61.8527 17.2853
6578 373 3 96.0042 61.918 17.7491
6579 373 2 96.4074 62.5086 17.2179
6580 373 3 96.6136 63.1371 17.8578
6999 394 2 75.0392 2.96886 17.1952
7000 394 3 75.4943 2.84211 17.9493
4788 283 3 -142.054 -417.936 16.6903
4787 283 2 -141.336 -417.63 17.2385
10208 584 1 59.8056 82.7233 17.3524
3656 226 3 161.576 183.483 17.099
9358 531 1 0.707867 -35.6244 17.9281
9360 531 1 1.57499 -35.0223 16.8407
6722 380 3 22.4111 -115.756 17.6826
6723 380 2 22.6688 -116.466 18.1428
4437 266 2 4.19939 -15.7137 17.654
4438 266 3 4.41414 -15.7977 16.7555
2661 167 3 -114.464 -56.1448 17.0416
2662 167 2 -114.134 -55.461 17.6794
2663 167 1 -113.533 -56.0724 18.0108
6728 380 3 25.3693 -116.425 18.2997
6751 381 2 67.4787 103.725 16.8156
6753 381 2 67.9571 103.982 17.738
2666 167 3 -113.067 -55.1493 17.6693
6756 381 3 69.8602 103.373 17.4482
6755 381 2 69.2763 103.857 17.9835
6752 381 3 68.343 104.13 16.859
6754 381 3 68.6474 103.368 17.5028
7194 403 3 -50.4927 44.3101 17.1302
7196 403 3 -49.8449 44.9654 18.1464
7195 403 2 -49.627 44.429 17.4486
849 54 1 12.5722 -16.5929 17.3507
6591 373 2 94.7126 64.1752 17.5689
6593 373 2 94.0757 64.8064 18.1459
6590 373 3 95.2596 64.6105 18.1499
6581 373 2 96.7639 64.0178 17.7051
6582 373 3 96.6857 64.6385 16.9727
5587 323 2 58.8793 4.44926 16.7732
5585 323 2 59.6072 4.46335 17.4023
5584 323 3 59.082 4.11382 18.0525
5583 323 2 58.449 4.81262 18.0147
9359 531 1 0.766519 -34.9041 17.3085
6721 380 2 22.5748 -114.944 17.3529
3500 219 3 -76.9999 46.1057 17.0849
6720 380 3 21.8896 -114.892 17.948
2672 167 1 -115.183 -54.4022 16.7203
3499 219 2 -76.0307 46.1871 17.1907
3498 219 3 -76.3521 45.4874 17.7799
290 19 1 -35.2567 5.41862 17.912
2669 167 1 -113.814 -53.8618 17.7502
2667 167 1 -113.418 -54.6366 16.9712
2668 167 2 -114.232 -54.5414 17.3266
2670 167 1 -113.922 -53.6611 16.8524
289 19 1 -34.9009 6.28776 17.8871
2601 163 1 -32.2669 -14.7506 16.8114
2600 163 1 -32.1433 -14.7227 17.7493
7182 403 3 -52.4641 46.3668 18.1532
7183 403 2 -52.3113 46.6087 17.2845
7190 403 3 -51.2469 45.6237 17.6561
7193 403 2 -50.2373 45.2036 17.2773
7191 403 2 -50.9729 46.0239 16.914
7264 407 3 50.224 -213.572 17.0498
7265 407 2 50.1691 -214.163 17.8011
10500 603 1 11.1953 -33.9776 17.5716
4221 255 2 192.869 145.919 16.7442
4019 245 2 112.527 -213.894 18.1596
4018 245 3 113.259 -214.164 17.698
10501 603 3 11.7009 -33.4935 18.1604
6592 373 3 94.4117 65.0195 17.356
4017 245 2 113.69 -213.545 18.2497
3663 227 2 75.7639 -54.3044 16.6714
3664 227 3 75.095 -54.1231 17.2605
3665 227 2 75.0163 -54.2968 18.178
7863 438 1 -23.5891 46.3588 17.4869
7864 438 1 -23.1547 46.6582 18.3078
5581 323 2 57.4676 5.97497 17.8518
6583 373 2 96.708 65.3394 17.5952
5582 323 3 57.6813 5.09935 17.6211
5586 323 3 59.2452 5.2051 17.0964
3073 193 1 39.7637 85.7033 18.2802
7689 428 2 80.1993 187.028 17.4624
7691 428 2 81.316 188.02 17.7669
7692 428 3 80.5538 187.986 18.2438
7690 428 3 81.1085 187.146 17.4585
4207 254 2 40.3186 -11.9036 16.9924
3501 219 2 -76.8674 47.0371 17.2124
3503 219 2 -77.9095 47.8651 17.1027
3505 219 2 -77.5615 48.156 17.9601
3504 219 3 -77.8357 47.2626 17.8658
5653 326 2 44.6503 407.096 17.2701
5651 326 2 43.3993 408.268 17.535
5652 326 3 43.9988 407.58 17.7842
7647 426 2 185.525 148.129 18.2618
5655 326 2 45.5732 407.388 16.8469
7649 426 2 186.356 148.184 16.7248
7648 426 3 186.196 148.291 17.6166
5656 326 3 45.1737 408.143 17.035
7257 407 2 47.3608 -212.287 17.4525
7184 403 3 -51.5195 46.9801 17.7097
7185 403 2 -50.7466 47.4642 17.8208
10511 603 1 8.62214 -31.7783 18.0274
7263 407 2 50.8256 -212.907 17.2088
10056 575 1 31.2288 48.2986 17.8062
3673 227 2 72.1797 -52.0465 16.9039
3672 227 3 71.9055 -52.8639 17.2581
3671 227 2 72.6992 -52.6332 17.7195
5389 313 2 -25.3672 47.5816 16.8289
3669 227 2 74.1517 -52.1982 18.0243
3670 227 3 73.3442 -52.4996 18.3147
3668 227 3 74.533 -53.0124 17.841
7862 438 2 -24.1326 47.0226 17.2694
3667 227 2 75.3648 -53.1047 18.1656
3127 196 1 35.4654 28.1675 17.6431
3122 196 1 36.5071 27.7972 17.9193
5580 323 3 57.9664 6.67707 17.5792
5578 323 3 57.4153 8.03168 17.1566
5579 323 2 57.2793 7.1328 17.2634
7865 438 1 -22.6096 47.4366 18.2367
5965 342 2 -121.102 87.2053 17.2033
7688 428 3 79.8904 187.055 18.297
3077 193 3 38.7051 86.8487 18.2635
4205 254 2 41.2328 -11.3623 16.7601
7695 428 2 80.261 189.774 17.694
3599 224 2 42.2828 169.928 17.2363
3598 224 3 41.9527 169.091 17.3183
5650 326 3 43.2662 408.802 18.3047
3597 224 2 42.1606 169.536 18.1342
5648 326 3 44.0717 409.344 17.044
5649 326 2 44.0503 409.039 17.8828
5647 326 2 43.7357 408.569 16.6744
7654 426 3 185.953 149.375 16.9704
7655 426 2 185.716 149.851 17.7139
7656 426 3 185.246 149.045 17.8393
3723 230 2 -11.1222 -170.381 16.8795
10512 603 1 9.37992 -31.3168 17.7312
4820 285 3 31.4865 49.8302 16.7156
4821 285 2 31.0894 49.9316 17.4939
3136 196 1 32.9402 29.432 17.5898
10058 575 3 32.0266 49.031 18.0538
10059 575 1 32.1122 49.9568 18.0963
5386 313 3 -26.6299 48.5212 17.1257
5387 313 2 -25.7186 48.606 17.317
3135 196 1 33.6777 29.6425 18.0545
3134 196 1 34.5404 29.8731 18.2426
3124 196 1 36.0428 29.2148 17.2711
3125 196 3 36.0004 29.6362 18.0973
3123 196 1 36.479 28.404 17.1544
3126 196 2 35.9152 28.7671 18.2368
4211 254 2 38.1814 -11.4793 17.6448
4212 254 3 37.6806 -10.67 17.8157
3121 196 1 37.0535 28.5474 18.0932
4210 254 3 38.9845 -11.0798 17.4556
7694 428 3 79.9368 188.951 17.8791
3084 193 2 39.1506 89.9135 17.9874
7696 428 3 80.2269 190.391 16.9832
7717 430 2 40.4674 31.2895 17.7349
4198 254 3 43.3035 -8.79805 17.4275
4197 254 2 42.7243 -8.36083 18.0164